+ 0.1 1 2 cbr 1000 ------- 2 1.0 0.0 0 0
- 0.1 1 2 cbr 1000 ------- 2 1.0 0.0 0 0
r 0.1058 1 2 cbr 1000 ------- 2 1.0 0.0 0 0
+ 0.1058 2 3 cbr 1000 ------- 2 1.0 0.0 0 0
- 0.1058 2 3 cbr 1000 ------- 2 1.0 0.0 0 0
+ 0.108 1 2 cbr 1000 ------- 2 1.0 0.0 1 1
- 0.108 1 2 cbr 1000 ------- 2 1.0 0.0 1 1
r 0.1116 2 3 cbr 1000 ------- 2 1.0 0.0 0 0
+ 0.1116 3 0 cbr 1000 ------- 2 1.0 0.0 0 0
- 0.1116 3 0 cbr 1000 ------- 2 1.0 0.0 0 0
r 0.1138 1 2 cbr 1000 ------- 2 1.0 0.0 1 1
+ 0.1138 2 3 cbr 1000 ------- 2 1.0 0.0 1 1
- 0.1138 2 3 cbr 1000 ------- 2 1.0 0.0 1 1
+ 0.116 1 2 cbr 1000 ------- 2 1.0 0.0 2 2
- 0.116 1 2 cbr 1000 ------- 2 1.0 0.0 2 2
r 0.1174 3 0 cbr 1000 ------- 2 1.0 0.0 0 0
r 0.1196 2 3 cbr 1000 ------- 2 1.0 0.0 1 1
+ 0.1196 3 0 cbr 1000 ------- 2 1.0 0.0 1 1
- 0.1196 3 0 cbr 1000 ------- 2 1.0 0.0 1 1
r 0.1218 1 2 cbr 1000 ------- 2 1.0 0.0 2 2
+ 0.1218 2 3 cbr 1000 ------- 2 1.0 0.0 2 2
- 0.1218 2 3 cbr 1000 ------- 2 1.0 0.0 2 2
+ 0.124 1 2 cbr 1000 ------- 2 1.0 0.0 3 3
- 0.124 1 2 cbr 1000 ------- 2 1.0 0.0 3 3
r 0.1254 3 0 cbr 1000 ------- 2 1.0 0.0 1 1
r 0.1276 2 3 cbr 1000 ------- 2 1.0 0.0 2 2
+ 0.1276 3 0 cbr 1000 ------- 2 1.0 0.0 2 2
- 0.1276 3 0 cbr 1000 ------- 2 1.0 0.0 2 2
r 0.1298 1 2 cbr 1000 ------- 2 1.0 0.0 3 3
+ 0.1298 2 3 cbr 1000 ------- 2 1.0 0.0 3 3
- 0.1298 2 3 cbr 1000 ------- 2 1.0 0.0 3 3
+ 0.132 1 2 cbr 1000 ------- 2 1.0 0.0 4 4
- 0.132 1 2 cbr 1000 ------- 2 1.0 0.0 4 4
r 0.1334 3 0 cbr 1000 ------- 2 1.0 0.0 2 2
r 0.1356 2 3 cbr 1000 ------- 2 1.0 0.0 3 3
+ 0.1356 3 0 cbr 1000 ------- 2 1.0 0.0 3 3
- 0.1356 3 0 cbr 1000 ------- 2 1.0 0.0 3 3
r 0.1378 1 2 cbr 1000 ------- 2 1.0 0.0 4 4
+ 0.1378 2 3 cbr 1000 ------- 2 1.0 0.0 4 4
- 0.1378 2 3 cbr 1000 ------- 2 1.0 0.0 4 4
+ 0.14 1 2 cbr 1000 ------- 2 1.0 0.0 5 5
- 0.14 1 2 cbr 1000 ------- 2 1.0 0.0 5 5
r 0.1414 3 0 cbr 1000 ------- 2 1.0 0.0 3 3
r 0.1436 2 3 cbr 1000 ------- 2 1.0 0.0 4 4
+ 0.1436 3 0 cbr 1000 ------- 2 1.0 0.0 4 4
- 0.1436 3 0 cbr 1000 ------- 2 1.0 0.0 4 4
r 0.1458 1 2 cbr 1000 ------- 2 1.0 0.0 5 5
+ 0.1458 2 3 cbr 1000 ------- 2 1.0 0.0 5 5
- 0.1458 2 3 cbr 1000 ------- 2 1.0 0.0 5 5
+ 0.148 1 2 cbr 1000 ------- 2 1.0 0.0 6 6
- 0.148 1 2 cbr 1000 ------- 2 1.0 0.0 6 6
r 0.1494 3 0 cbr 1000 ------- 2 1.0 0.0 4 4
r 0.1516 2 3 cbr 1000 ------- 2 1.0 0.0 5 5
+ 0.1516 3 0 cbr 1000 ------- 2 1.0 0.0 5 5
- 0.1516 3 0 cbr 1000 ------- 2 1.0 0.0 5 5
r 0.1538 1 2 cbr 1000 ------- 2 1.0 0.0 6 6
+ 0.1538 2 3 cbr 1000 ------- 2 1.0 0.0 6 6
- 0.1538 2 3 cbr 1000 ------- 2 1.0 0.0 6 6
+ 0.156 1 2 cbr 1000 ------- 2 1.0 0.0 7 7
- 0.156 1 2 cbr 1000 ------- 2 1.0 0.0 7 7
r 0.1574 3 0 cbr 1000 ------- 2 1.0 0.0 5 5
r 0.1596 2 3 cbr 1000 ------- 2 1.0 0.0 6 6
+ 0.1596 3 0 cbr 1000 ------- 2 1.0 0.0 6 6
- 0.1596 3 0 cbr 1000 ------- 2 1.0 0.0 6 6
r 0.1618 1 2 cbr 1000 ------- 2 1.0 0.0 7 7
+ 0.1618 2 3 cbr 1000 ------- 2 1.0 0.0 7 7
- 0.1618 2 3 cbr 1000 ------- 2 1.0 0.0 7 7
+ 0.164 1 2 cbr 1000 ------- 2 1.0 0.0 8 8
- 0.164 1 2 cbr 1000 ------- 2 1.0 0.0 8 8
r 0.1654 3 0 cbr 1000 ------- 2 1.0 0.0 6 6
r 0.1676 2 3 cbr 1000 ------- 2 1.0 0.0 7 7
+ 0.1676 3 0 cbr 1000 ------- 2 1.0 0.0 7 7
- 0.1676 3 0 cbr 1000 ------- 2 1.0 0.0 7 7
r 0.1698 1 2 cbr 1000 ------- 2 1.0 0.0 8 8
+ 0.1698 2 3 cbr 1000 ------- 2 1.0 0.0 8 8
- 0.1698 2 3 cbr 1000 ------- 2 1.0 0.0 8 8
+ 0.172 1 2 cbr 1000 ------- 2 1.0 0.0 9 9
- 0.172 1 2 cbr 1000 ------- 2 1.0 0.0 9 9
r 0.1734 3 0 cbr 1000 ------- 2 1.0 0.0 7 7
r 0.1756 2 3 cbr 1000 ------- 2 1.0 0.0 8 8
+ 0.1756 3 0 cbr 1000 ------- 2 1.0 0.0 8 8
- 0.1756 3 0 cbr 1000 ------- 2 1.0 0.0 8 8
r 0.1778 1 2 cbr 1000 ------- 2 1.0 0.0 9 9
+ 0.1778 2 3 cbr 1000 ------- 2 1.0 0.0 9 9
- 0.1778 2 3 cbr 1000 ------- 2 1.0 0.0 9 9
+ 0.18 1 2 cbr 1000 ------- 2 1.0 0.0 10 10
- 0.18 1 2 cbr 1000 ------- 2 1.0 0.0 10 10
r 0.1814 3 0 cbr 1000 ------- 2 1.0 0.0 8 8
r 0.1836 2 3 cbr 1000 ------- 2 1.0 0.0 9 9
+ 0.1836 3 0 cbr 1000 ------- 2 1.0 0.0 9 9
- 0.1836 3 0 cbr 1000 ------- 2 1.0 0.0 9 9
r 0.1858 1 2 cbr 1000 ------- 2 1.0 0.0 10 10
+ 0.1858 2 3 cbr 1000 ------- 2 1.0 0.0 10 10
- 0.1858 2 3 cbr 1000 ------- 2 1.0 0.0 10 10
+ 0.188 1 2 cbr 1000 ------- 2 1.0 0.0 11 11
- 0.188 1 2 cbr 1000 ------- 2 1.0 0.0 11 11
r 0.1894 3 0 cbr 1000 ------- 2 1.0 0.0 9 9
r 0.1916 2 3 cbr 1000 ------- 2 1.0 0.0 10 10
+ 0.1916 3 0 cbr 1000 ------- 2 1.0 0.0 10 10
- 0.1916 3 0 cbr 1000 ------- 2 1.0 0.0 10 10
r 0.1938 1 2 cbr 1000 ------- 2 1.0 0.0 11 11
+ 0.1938 2 3 cbr 1000 ------- 2 1.0 0.0 11 11
- 0.1938 2 3 cbr 1000 ------- 2 1.0 0.0 11 11
+ 0.196 1 2 cbr 1000 ------- 2 1.0 0.0 12 12
- 0.196 1 2 cbr 1000 ------- 2 1.0 0.0 12 12
r 0.1974 3 0 cbr 1000 ------- 2 1.0 0.0 10 10
r 0.1996 2 3 cbr 1000 ------- 2 1.0 0.0 11 11
+ 0.1996 3 0 cbr 1000 ------- 2 1.0 0.0 11 11
- 0.1996 3 0 cbr 1000 ------- 2 1.0 0.0 11 11
+ 0.2 4 3 tcp 40 ------- 1 4.0 5.0 0 13
- 0.2 4 3 tcp 40 ------- 1 4.0 5.0 0 13
r 0.2018 1 2 cbr 1000 ------- 2 1.0 0.0 12 12
+ 0.2018 2 3 cbr 1000 ------- 2 1.0 0.0 12 12
- 0.2018 2 3 cbr 1000 ------- 2 1.0 0.0 12 12
+ 0.204 1 2 cbr 1000 ------- 2 1.0 0.0 13 14
- 0.204 1 2 cbr 1000 ------- 2 1.0 0.0 13 14
r 0.205032 4 3 tcp 40 ------- 1 4.0 5.0 0 13
+ 0.205032 3 5 tcp 40 ------- 1 4.0 5.0 0 13
- 0.205032 3 5 tcp 40 ------- 1 4.0 5.0 0 13
r 0.2054 3 0 cbr 1000 ------- 2 1.0 0.0 11 11
r 0.2076 2 3 cbr 1000 ------- 2 1.0 0.0 12 12
+ 0.2076 3 0 cbr 1000 ------- 2 1.0 0.0 12 12
- 0.2076 3 0 cbr 1000 ------- 2 1.0 0.0 12 12
r 0.2098 1 2 cbr 1000 ------- 2 1.0 0.0 13 14
+ 0.2098 2 3 cbr 1000 ------- 2 1.0 0.0 13 14
- 0.2098 2 3 cbr 1000 ------- 2 1.0 0.0 13 14
r 0.210064 3 5 tcp 40 ------- 1 4.0 5.0 0 13
+ 0.210064 5 3 ack 40 ------- 1 5.0 4.0 0 15
- 0.210064 5 3 ack 40 ------- 1 5.0 4.0 0 15
+ 0.212 1 2 cbr 1000 ------- 2 1.0 0.0 14 16
- 0.212 1 2 cbr 1000 ------- 2 1.0 0.0 14 16
r 0.2134 3 0 cbr 1000 ------- 2 1.0 0.0 12 12
r 0.215096 5 3 ack 40 ------- 1 5.0 4.0 0 15
+ 0.215096 3 4 ack 40 ------- 1 5.0 4.0 0 15
- 0.215096 3 4 ack 40 ------- 1 5.0 4.0 0 15
r 0.2156 2 3 cbr 1000 ------- 2 1.0 0.0 13 14
+ 0.2156 3 0 cbr 1000 ------- 2 1.0 0.0 13 14
- 0.2156 3 0 cbr 1000 ------- 2 1.0 0.0 13 14
r 0.2178 1 2 cbr 1000 ------- 2 1.0 0.0 14 16
+ 0.2178 2 3 cbr 1000 ------- 2 1.0 0.0 14 16
- 0.2178 2 3 cbr 1000 ------- 2 1.0 0.0 14 16
+ 0.22 1 2 cbr 1000 ------- 2 1.0 0.0 15 17
- 0.22 1 2 cbr 1000 ------- 2 1.0 0.0 15 17
r 0.220128 3 4 ack 40 ------- 1 5.0 4.0 0 15
+ 0.220128 4 3 tcp 1040 ------- 1 4.0 5.0 1 18
- 0.220128 4 3 tcp 1040 ------- 1 4.0 5.0 1 18
+ 0.220128 4 3 tcp 1040 ------- 1 4.0 5.0 2 19
- 0.22096 4 3 tcp 1040 ------- 1 4.0 5.0 2 19
r 0.2214 3 0 cbr 1000 ------- 2 1.0 0.0 13 14
r 0.2236 2 3 cbr 1000 ------- 2 1.0 0.0 14 16
+ 0.2236 3 0 cbr 1000 ------- 2 1.0 0.0 14 16
- 0.2236 3 0 cbr 1000 ------- 2 1.0 0.0 14 16
r 0.2258 1 2 cbr 1000 ------- 2 1.0 0.0 15 17
+ 0.2258 2 3 cbr 1000 ------- 2 1.0 0.0 15 17
- 0.2258 2 3 cbr 1000 ------- 2 1.0 0.0 15 17
r 0.22596 4 3 tcp 1040 ------- 1 4.0 5.0 1 18
+ 0.22596 3 5 tcp 1040 ------- 1 4.0 5.0 1 18
- 0.22596 3 5 tcp 1040 ------- 1 4.0 5.0 1 18
r 0.226792 4 3 tcp 1040 ------- 1 4.0 5.0 2 19
+ 0.226792 3 5 tcp 1040 ------- 1 4.0 5.0 2 19
- 0.226792 3 5 tcp 1040 ------- 1 4.0 5.0 2 19
+ 0.228 1 2 cbr 1000 ------- 2 1.0 0.0 16 20
- 0.228 1 2 cbr 1000 ------- 2 1.0 0.0 16 20
r 0.2294 3 0 cbr 1000 ------- 2 1.0 0.0 14 16
r 0.2316 2 3 cbr 1000 ------- 2 1.0 0.0 15 17
+ 0.2316 3 0 cbr 1000 ------- 2 1.0 0.0 15 17
- 0.2316 3 0 cbr 1000 ------- 2 1.0 0.0 15 17
r 0.231792 3 5 tcp 1040 ------- 1 4.0 5.0 1 18
+ 0.231792 5 3 ack 40 ------- 1 5.0 4.0 1 21
- 0.231792 5 3 ack 40 ------- 1 5.0 4.0 1 21
r 0.232624 3 5 tcp 1040 ------- 1 4.0 5.0 2 19
+ 0.232624 5 3 ack 40 ------- 1 5.0 4.0 2 22
- 0.232624 5 3 ack 40 ------- 1 5.0 4.0 2 22
r 0.2338 1 2 cbr 1000 ------- 2 1.0 0.0 16 20
+ 0.2338 2 3 cbr 1000 ------- 2 1.0 0.0 16 20
- 0.2338 2 3 cbr 1000 ------- 2 1.0 0.0 16 20
+ 0.236 1 2 cbr 1000 ------- 2 1.0 0.0 17 23
- 0.236 1 2 cbr 1000 ------- 2 1.0 0.0 17 23
r 0.236824 5 3 ack 40 ------- 1 5.0 4.0 1 21
+ 0.236824 3 4 ack 40 ------- 1 5.0 4.0 1 21
- 0.236824 3 4 ack 40 ------- 1 5.0 4.0 1 21
r 0.2374 3 0 cbr 1000 ------- 2 1.0 0.0 15 17
r 0.237656 5 3 ack 40 ------- 1 5.0 4.0 2 22
+ 0.237656 3 4 ack 40 ------- 1 5.0 4.0 2 22
- 0.237656 3 4 ack 40 ------- 1 5.0 4.0 2 22
r 0.2396 2 3 cbr 1000 ------- 2 1.0 0.0 16 20
+ 0.2396 3 0 cbr 1000 ------- 2 1.0 0.0 16 20
- 0.2396 3 0 cbr 1000 ------- 2 1.0 0.0 16 20
r 0.2418 1 2 cbr 1000 ------- 2 1.0 0.0 17 23
+ 0.2418 2 3 cbr 1000 ------- 2 1.0 0.0 17 23
- 0.2418 2 3 cbr 1000 ------- 2 1.0 0.0 17 23
r 0.241856 3 4 ack 40 ------- 1 5.0 4.0 1 21
+ 0.241856 4 3 tcp 1040 ------- 1 4.0 5.0 3 24
- 0.241856 4 3 tcp 1040 ------- 1 4.0 5.0 3 24
+ 0.241856 4 3 tcp 1040 ------- 1 4.0 5.0 4 25
r 0.242688 3 4 ack 40 ------- 1 5.0 4.0 2 22
+ 0.242688 4 3 tcp 1040 ------- 1 4.0 5.0 5 26
+ 0.242688 4 3 tcp 1040 ------- 1 4.0 5.0 6 27
- 0.242688 4 3 tcp 1040 ------- 1 4.0 5.0 4 25
- 0.24352 4 3 tcp 1040 ------- 1 4.0 5.0 5 26
+ 0.244 1 2 cbr 1000 ------- 2 1.0 0.0 18 28
- 0.244 1 2 cbr 1000 ------- 2 1.0 0.0 18 28
- 0.244352 4 3 tcp 1040 ------- 1 4.0 5.0 6 27
r 0.2454 3 0 cbr 1000 ------- 2 1.0 0.0 16 20
r 0.2476 2 3 cbr 1000 ------- 2 1.0 0.0 17 23
+ 0.2476 3 0 cbr 1000 ------- 2 1.0 0.0 17 23
- 0.2476 3 0 cbr 1000 ------- 2 1.0 0.0 17 23
r 0.247688 4 3 tcp 1040 ------- 1 4.0 5.0 3 24
+ 0.247688 3 5 tcp 1040 ------- 1 4.0 5.0 3 24
- 0.247688 3 5 tcp 1040 ------- 1 4.0 5.0 3 24
r 0.24852 4 3 tcp 1040 ------- 1 4.0 5.0 4 25
+ 0.24852 3 5 tcp 1040 ------- 1 4.0 5.0 4 25
- 0.24852 3 5 tcp 1040 ------- 1 4.0 5.0 4 25
r 0.249352 4 3 tcp 1040 ------- 1 4.0 5.0 5 26
+ 0.249352 3 5 tcp 1040 ------- 1 4.0 5.0 5 26
- 0.249352 3 5 tcp 1040 ------- 1 4.0 5.0 5 26
r 0.2498 1 2 cbr 1000 ------- 2 1.0 0.0 18 28
+ 0.2498 2 3 cbr 1000 ------- 2 1.0 0.0 18 28
- 0.2498 2 3 cbr 1000 ------- 2 1.0 0.0 18 28
r 0.250184 4 3 tcp 1040 ------- 1 4.0 5.0 6 27
+ 0.250184 3 5 tcp 1040 ------- 1 4.0 5.0 6 27
- 0.250184 3 5 tcp 1040 ------- 1 4.0 5.0 6 27
+ 0.252 1 2 cbr 1000 ------- 2 1.0 0.0 19 29
- 0.252 1 2 cbr 1000 ------- 2 1.0 0.0 19 29
r 0.2534 3 0 cbr 1000 ------- 2 1.0 0.0 17 23
r 0.25352 3 5 tcp 1040 ------- 1 4.0 5.0 3 24
+ 0.25352 5 3 ack 40 ------- 1 5.0 4.0 3 30
- 0.25352 5 3 ack 40 ------- 1 5.0 4.0 3 30
r 0.254352 3 5 tcp 1040 ------- 1 4.0 5.0 4 25
+ 0.254352 5 3 ack 40 ------- 1 5.0 4.0 4 31
- 0.254352 5 3 ack 40 ------- 1 5.0 4.0 4 31
r 0.255184 3 5 tcp 1040 ------- 1 4.0 5.0 5 26
+ 0.255184 5 3 ack 40 ------- 1 5.0 4.0 5 32
- 0.255184 5 3 ack 40 ------- 1 5.0 4.0 5 32
r 0.2556 2 3 cbr 1000 ------- 2 1.0 0.0 18 28
+ 0.2556 3 0 cbr 1000 ------- 2 1.0 0.0 18 28
- 0.2556 3 0 cbr 1000 ------- 2 1.0 0.0 18 28
r 0.256016 3 5 tcp 1040 ------- 1 4.0 5.0 6 27
+ 0.256016 5 3 ack 40 ------- 1 5.0 4.0 6 33
- 0.256016 5 3 ack 40 ------- 1 5.0 4.0 6 33
r 0.2578 1 2 cbr 1000 ------- 2 1.0 0.0 19 29
+ 0.2578 2 3 cbr 1000 ------- 2 1.0 0.0 19 29
- 0.2578 2 3 cbr 1000 ------- 2 1.0 0.0 19 29
r 0.258552 5 3 ack 40 ------- 1 5.0 4.0 3 30
+ 0.258552 3 4 ack 40 ------- 1 5.0 4.0 3 30
- 0.258552 3 4 ack 40 ------- 1 5.0 4.0 3 30
r 0.259384 5 3 ack 40 ------- 1 5.0 4.0 4 31
+ 0.259384 3 4 ack 40 ------- 1 5.0 4.0 4 31
- 0.259384 3 4 ack 40 ------- 1 5.0 4.0 4 31
+ 0.26 1 2 cbr 1000 ------- 2 1.0 0.0 20 34
- 0.26 1 2 cbr 1000 ------- 2 1.0 0.0 20 34
r 0.260216 5 3 ack 40 ------- 1 5.0 4.0 5 32
+ 0.260216 3 4 ack 40 ------- 1 5.0 4.0 5 32
- 0.260216 3 4 ack 40 ------- 1 5.0 4.0 5 32
r 0.261048 5 3 ack 40 ------- 1 5.0 4.0 6 33
+ 0.261048 3 4 ack 40 ------- 1 5.0 4.0 6 33
- 0.261048 3 4 ack 40 ------- 1 5.0 4.0 6 33
r 0.2614 3 0 cbr 1000 ------- 2 1.0 0.0 18 28
r 0.263584 3 4 ack 40 ------- 1 5.0 4.0 3 30
+ 0.263584 4 3 tcp 1040 ------- 1 4.0 5.0 7 35
- 0.263584 4 3 tcp 1040 ------- 1 4.0 5.0 7 35
+ 0.263584 4 3 tcp 1040 ------- 1 4.0 5.0 8 36
r 0.2636 2 3 cbr 1000 ------- 2 1.0 0.0 19 29
+ 0.2636 3 0 cbr 1000 ------- 2 1.0 0.0 19 29
- 0.2636 3 0 cbr 1000 ------- 2 1.0 0.0 19 29
r 0.264416 3 4 ack 40 ------- 1 5.0 4.0 4 31
+ 0.264416 4 3 tcp 1040 ------- 1 4.0 5.0 9 37
+ 0.264416 4 3 tcp 1040 ------- 1 4.0 5.0 10 38
- 0.264416 4 3 tcp 1040 ------- 1 4.0 5.0 8 36
r 0.265248 3 4 ack 40 ------- 1 5.0 4.0 5 32
+ 0.265248 4 3 tcp 1040 ------- 1 4.0 5.0 11 39
+ 0.265248 4 3 tcp 1040 ------- 1 4.0 5.0 12 40
- 0.265248 4 3 tcp 1040 ------- 1 4.0 5.0 9 37
r 0.2658 1 2 cbr 1000 ------- 2 1.0 0.0 20 34
+ 0.2658 2 3 cbr 1000 ------- 2 1.0 0.0 20 34
- 0.2658 2 3 cbr 1000 ------- 2 1.0 0.0 20 34
r 0.26608 3 4 ack 40 ------- 1 5.0 4.0 6 33
+ 0.26608 4 3 tcp 1040 ------- 1 4.0 5.0 13 41
+ 0.26608 4 3 tcp 1040 ------- 1 4.0 5.0 14 42
- 0.26608 4 3 tcp 1040 ------- 1 4.0 5.0 10 38
- 0.266912 4 3 tcp 1040 ------- 1 4.0 5.0 11 39
- 0.267744 4 3 tcp 1040 ------- 1 4.0 5.0 12 40
+ 0.268 1 2 cbr 1000 ------- 2 1.0 0.0 21 43
- 0.268 1 2 cbr 1000 ------- 2 1.0 0.0 21 43
- 0.268576 4 3 tcp 1040 ------- 1 4.0 5.0 13 41
r 0.2694 3 0 cbr 1000 ------- 2 1.0 0.0 19 29
- 0.269408 4 3 tcp 1040 ------- 1 4.0 5.0 14 42
r 0.269416 4 3 tcp 1040 ------- 1 4.0 5.0 7 35
+ 0.269416 3 5 tcp 1040 ------- 1 4.0 5.0 7 35
- 0.269416 3 5 tcp 1040 ------- 1 4.0 5.0 7 35
r 0.270248 4 3 tcp 1040 ------- 1 4.0 5.0 8 36
+ 0.270248 3 5 tcp 1040 ------- 1 4.0 5.0 8 36
- 0.270248 3 5 tcp 1040 ------- 1 4.0 5.0 8 36
r 0.27108 4 3 tcp 1040 ------- 1 4.0 5.0 9 37
+ 0.27108 3 5 tcp 1040 ------- 1 4.0 5.0 9 37
- 0.27108 3 5 tcp 1040 ------- 1 4.0 5.0 9 37
r 0.2716 2 3 cbr 1000 ------- 2 1.0 0.0 20 34
+ 0.2716 3 0 cbr 1000 ------- 2 1.0 0.0 20 34
- 0.2716 3 0 cbr 1000 ------- 2 1.0 0.0 20 34
r 0.271912 4 3 tcp 1040 ------- 1 4.0 5.0 10 38
+ 0.271912 3 5 tcp 1040 ------- 1 4.0 5.0 10 38
- 0.271912 3 5 tcp 1040 ------- 1 4.0 5.0 10 38
r 0.272744 4 3 tcp 1040 ------- 1 4.0 5.0 11 39
+ 0.272744 3 5 tcp 1040 ------- 1 4.0 5.0 11 39
- 0.272744 3 5 tcp 1040 ------- 1 4.0 5.0 11 39
r 0.273576 4 3 tcp 1040 ------- 1 4.0 5.0 12 40
+ 0.273576 3 5 tcp 1040 ------- 1 4.0 5.0 12 40
- 0.273576 3 5 tcp 1040 ------- 1 4.0 5.0 12 40
r 0.2738 1 2 cbr 1000 ------- 2 1.0 0.0 21 43
+ 0.2738 2 3 cbr 1000 ------- 2 1.0 0.0 21 43
- 0.2738 2 3 cbr 1000 ------- 2 1.0 0.0 21 43
r 0.274408 4 3 tcp 1040 ------- 1 4.0 5.0 13 41
+ 0.274408 3 5 tcp 1040 ------- 1 4.0 5.0 13 41
- 0.274408 3 5 tcp 1040 ------- 1 4.0 5.0 13 41
r 0.27524 4 3 tcp 1040 ------- 1 4.0 5.0 14 42
+ 0.27524 3 5 tcp 1040 ------- 1 4.0 5.0 14 42
- 0.27524 3 5 tcp 1040 ------- 1 4.0 5.0 14 42
r 0.275248 3 5 tcp 1040 ------- 1 4.0 5.0 7 35
+ 0.275248 5 3 ack 40 ------- 1 5.0 4.0 7 44
- 0.275248 5 3 ack 40 ------- 1 5.0 4.0 7 44
+ 0.276 1 2 cbr 1000 ------- 2 1.0 0.0 22 45
- 0.276 1 2 cbr 1000 ------- 2 1.0 0.0 22 45
r 0.27608 3 5 tcp 1040 ------- 1 4.0 5.0 8 36
+ 0.27608 5 3 ack 40 ------- 1 5.0 4.0 8 46
- 0.27608 5 3 ack 40 ------- 1 5.0 4.0 8 46
r 0.276912 3 5 tcp 1040 ------- 1 4.0 5.0 9 37
+ 0.276912 5 3 ack 40 ------- 1 5.0 4.0 9 47
- 0.276912 5 3 ack 40 ------- 1 5.0 4.0 9 47
r 0.2774 3 0 cbr 1000 ------- 2 1.0 0.0 20 34
r 0.277744 3 5 tcp 1040 ------- 1 4.0 5.0 10 38
+ 0.277744 5 3 ack 40 ------- 1 5.0 4.0 10 48
- 0.277744 5 3 ack 40 ------- 1 5.0 4.0 10 48
r 0.278576 3 5 tcp 1040 ------- 1 4.0 5.0 11 39
+ 0.278576 5 3 ack 40 ------- 1 5.0 4.0 11 49
- 0.278576 5 3 ack 40 ------- 1 5.0 4.0 11 49
r 0.279408 3 5 tcp 1040 ------- 1 4.0 5.0 12 40
+ 0.279408 5 3 ack 40 ------- 1 5.0 4.0 12 50
- 0.279408 5 3 ack 40 ------- 1 5.0 4.0 12 50
r 0.2796 2 3 cbr 1000 ------- 2 1.0 0.0 21 43
+ 0.2796 3 0 cbr 1000 ------- 2 1.0 0.0 21 43
- 0.2796 3 0 cbr 1000 ------- 2 1.0 0.0 21 43
r 0.28024 3 5 tcp 1040 ------- 1 4.0 5.0 13 41
+ 0.28024 5 3 ack 40 ------- 1 5.0 4.0 13 51
- 0.28024 5 3 ack 40 ------- 1 5.0 4.0 13 51
r 0.28028 5 3 ack 40 ------- 1 5.0 4.0 7 44
+ 0.28028 3 4 ack 40 ------- 1 5.0 4.0 7 44
- 0.28028 3 4 ack 40 ------- 1 5.0 4.0 7 44
r 0.281072 3 5 tcp 1040 ------- 1 4.0 5.0 14 42
+ 0.281072 5 3 ack 40 ------- 1 5.0 4.0 14 52
- 0.281072 5 3 ack 40 ------- 1 5.0 4.0 14 52
r 0.281112 5 3 ack 40 ------- 1 5.0 4.0 8 46
+ 0.281112 3 4 ack 40 ------- 1 5.0 4.0 8 46
- 0.281112 3 4 ack 40 ------- 1 5.0 4.0 8 46
r 0.2818 1 2 cbr 1000 ------- 2 1.0 0.0 22 45
+ 0.2818 2 3 cbr 1000 ------- 2 1.0 0.0 22 45
- 0.2818 2 3 cbr 1000 ------- 2 1.0 0.0 22 45
r 0.281944 5 3 ack 40 ------- 1 5.0 4.0 9 47
+ 0.281944 3 4 ack 40 ------- 1 5.0 4.0 9 47
- 0.281944 3 4 ack 40 ------- 1 5.0 4.0 9 47
r 0.282776 5 3 ack 40 ------- 1 5.0 4.0 10 48
+ 0.282776 3 4 ack 40 ------- 1 5.0 4.0 10 48
- 0.282776 3 4 ack 40 ------- 1 5.0 4.0 10 48
r 0.283608 5 3 ack 40 ------- 1 5.0 4.0 11 49
+ 0.283608 3 4 ack 40 ------- 1 5.0 4.0 11 49
- 0.283608 3 4 ack 40 ------- 1 5.0 4.0 11 49
+ 0.284 1 2 cbr 1000 ------- 2 1.0 0.0 23 53
- 0.284 1 2 cbr 1000 ------- 2 1.0 0.0 23 53
r 0.28444 5 3 ack 40 ------- 1 5.0 4.0 12 50
+ 0.28444 3 4 ack 40 ------- 1 5.0 4.0 12 50
- 0.28444 3 4 ack 40 ------- 1 5.0 4.0 12 50
r 0.285272 5 3 ack 40 ------- 1 5.0 4.0 13 51
+ 0.285272 3 4 ack 40 ------- 1 5.0 4.0 13 51
- 0.285272 3 4 ack 40 ------- 1 5.0 4.0 13 51
r 0.285312 3 4 ack 40 ------- 1 5.0 4.0 7 44
+ 0.285312 4 3 tcp 1040 ------- 1 4.0 5.0 15 54
- 0.285312 4 3 tcp 1040 ------- 1 4.0 5.0 15 54
+ 0.285312 4 3 tcp 1040 ------- 1 4.0 5.0 16 55
r 0.2854 3 0 cbr 1000 ------- 2 1.0 0.0 21 43
r 0.286104 5 3 ack 40 ------- 1 5.0 4.0 14 52
+ 0.286104 3 4 ack 40 ------- 1 5.0 4.0 14 52
- 0.286104 3 4 ack 40 ------- 1 5.0 4.0 14 52
r 0.286144 3 4 ack 40 ------- 1 5.0 4.0 8 46
+ 0.286144 4 3 tcp 1040 ------- 1 4.0 5.0 17 56
+ 0.286144 4 3 tcp 1040 ------- 1 4.0 5.0 18 57
- 0.286144 4 3 tcp 1040 ------- 1 4.0 5.0 16 55
r 0.286976 3 4 ack 40 ------- 1 5.0 4.0 9 47
+ 0.286976 4 3 tcp 1040 ------- 1 4.0 5.0 19 58
+ 0.286976 4 3 tcp 1040 ------- 1 4.0 5.0 20 59
- 0.286976 4 3 tcp 1040 ------- 1 4.0 5.0 17 56
r 0.2876 2 3 cbr 1000 ------- 2 1.0 0.0 22 45
+ 0.2876 3 0 cbr 1000 ------- 2 1.0 0.0 22 45
- 0.2876 3 0 cbr 1000 ------- 2 1.0 0.0 22 45
r 0.287808 3 4 ack 40 ------- 1 5.0 4.0 10 48
+ 0.287808 4 3 tcp 1040 ------- 1 4.0 5.0 21 60
+ 0.287808 4 3 tcp 1040 ------- 1 4.0 5.0 22 61
- 0.287808 4 3 tcp 1040 ------- 1 4.0 5.0 18 57
r 0.28864 3 4 ack 40 ------- 1 5.0 4.0 11 49
+ 0.28864 4 3 tcp 1040 ------- 1 4.0 5.0 23 62
+ 0.28864 4 3 tcp 1040 ------- 1 4.0 5.0 24 63
- 0.28864 4 3 tcp 1040 ------- 1 4.0 5.0 19 58
r 0.289472 3 4 ack 40 ------- 1 5.0 4.0 12 50
+ 0.289472 4 3 tcp 1040 ------- 1 4.0 5.0 25 64
+ 0.289472 4 3 tcp 1040 ------- 1 4.0 5.0 26 65
- 0.289472 4 3 tcp 1040 ------- 1 4.0 5.0 20 59
r 0.2898 1 2 cbr 1000 ------- 2 1.0 0.0 23 53
+ 0.2898 2 3 cbr 1000 ------- 2 1.0 0.0 23 53
- 0.2898 2 3 cbr 1000 ------- 2 1.0 0.0 23 53
r 0.290304 3 4 ack 40 ------- 1 5.0 4.0 13 51
+ 0.290304 4 3 tcp 1040 ------- 1 4.0 5.0 27 66
+ 0.290304 4 3 tcp 1040 ------- 1 4.0 5.0 28 67
- 0.290304 4 3 tcp 1040 ------- 1 4.0 5.0 21 60
r 0.291136 3 4 ack 40 ------- 1 5.0 4.0 14 52
+ 0.291136 4 3 tcp 1040 ------- 1 4.0 5.0 29 68
+ 0.291136 4 3 tcp 1040 ------- 1 4.0 5.0 30 69
- 0.291136 4 3 tcp 1040 ------- 1 4.0 5.0 22 61
r 0.291144 4 3 tcp 1040 ------- 1 4.0 5.0 15 54
+ 0.291144 3 5 tcp 1040 ------- 1 4.0 5.0 15 54
- 0.291144 3 5 tcp 1040 ------- 1 4.0 5.0 15 54
- 0.291968 4 3 tcp 1040 ------- 1 4.0 5.0 23 62
r 0.291976 4 3 tcp 1040 ------- 1 4.0 5.0 16 55
+ 0.291976 3 5 tcp 1040 ------- 1 4.0 5.0 16 55
- 0.291976 3 5 tcp 1040 ------- 1 4.0 5.0 16 55
+ 0.292 1 2 cbr 1000 ------- 2 1.0 0.0 24 70
- 0.292 1 2 cbr 1000 ------- 2 1.0 0.0 24 70
- 0.2928 4 3 tcp 1040 ------- 1 4.0 5.0 24 63
r 0.292808 4 3 tcp 1040 ------- 1 4.0 5.0 17 56
+ 0.292808 3 5 tcp 1040 ------- 1 4.0 5.0 17 56
- 0.292808 3 5 tcp 1040 ------- 1 4.0 5.0 17 56
r 0.2934 3 0 cbr 1000 ------- 2 1.0 0.0 22 45
- 0.293632 4 3 tcp 1040 ------- 1 4.0 5.0 25 64
r 0.29364 4 3 tcp 1040 ------- 1 4.0 5.0 18 57
+ 0.29364 3 5 tcp 1040 ------- 1 4.0 5.0 18 57
- 0.29364 3 5 tcp 1040 ------- 1 4.0 5.0 18 57
- 0.294464 4 3 tcp 1040 ------- 1 4.0 5.0 26 65
r 0.294472 4 3 tcp 1040 ------- 1 4.0 5.0 19 58
+ 0.294472 3 5 tcp 1040 ------- 1 4.0 5.0 19 58
- 0.294472 3 5 tcp 1040 ------- 1 4.0 5.0 19 58
- 0.295296 4 3 tcp 1040 ------- 1 4.0 5.0 27 66
r 0.295304 4 3 tcp 1040 ------- 1 4.0 5.0 20 59
+ 0.295304 3 5 tcp 1040 ------- 1 4.0 5.0 20 59
- 0.295304 3 5 tcp 1040 ------- 1 4.0 5.0 20 59
r 0.2956 2 3 cbr 1000 ------- 2 1.0 0.0 23 53
+ 0.2956 3 0 cbr 1000 ------- 2 1.0 0.0 23 53
- 0.2956 3 0 cbr 1000 ------- 2 1.0 0.0 23 53
- 0.296128 4 3 tcp 1040 ------- 1 4.0 5.0 28 67
r 0.296136 4 3 tcp 1040 ------- 1 4.0 5.0 21 60
+ 0.296136 3 5 tcp 1040 ------- 1 4.0 5.0 21 60
- 0.296136 3 5 tcp 1040 ------- 1 4.0 5.0 21 60
- 0.29696 4 3 tcp 1040 ------- 1 4.0 5.0 29 68
r 0.296968 4 3 tcp 1040 ------- 1 4.0 5.0 22 61
+ 0.296968 3 5 tcp 1040 ------- 1 4.0 5.0 22 61
- 0.296968 3 5 tcp 1040 ------- 1 4.0 5.0 22 61
r 0.296976 3 5 tcp 1040 ------- 1 4.0 5.0 15 54
+ 0.296976 5 3 ack 40 ------- 1 5.0 4.0 15 71
- 0.296976 5 3 ack 40 ------- 1 5.0 4.0 15 71
- 0.297792 4 3 tcp 1040 ------- 1 4.0 5.0 30 69
r 0.2978 4 3 tcp 1040 ------- 1 4.0 5.0 23 62
+ 0.2978 3 5 tcp 1040 ------- 1 4.0 5.0 23 62
- 0.2978 3 5 tcp 1040 ------- 1 4.0 5.0 23 62
r 0.2978 1 2 cbr 1000 ------- 2 1.0 0.0 24 70
+ 0.2978 2 3 cbr 1000 ------- 2 1.0 0.0 24 70
- 0.2978 2 3 cbr 1000 ------- 2 1.0 0.0 24 70
r 0.297808 3 5 tcp 1040 ------- 1 4.0 5.0 16 55
+ 0.297808 5 3 ack 40 ------- 1 5.0 4.0 16 72
- 0.297808 5 3 ack 40 ------- 1 5.0 4.0 16 72
r 0.298632 4 3 tcp 1040 ------- 1 4.0 5.0 24 63
+ 0.298632 3 5 tcp 1040 ------- 1 4.0 5.0 24 63
- 0.298632 3 5 tcp 1040 ------- 1 4.0 5.0 24 63
r 0.29864 3 5 tcp 1040 ------- 1 4.0 5.0 17 56
+ 0.29864 5 3 ack 40 ------- 1 5.0 4.0 17 73
- 0.29864 5 3 ack 40 ------- 1 5.0 4.0 17 73
r 0.299464 4 3 tcp 1040 ------- 1 4.0 5.0 25 64
+ 0.299464 3 5 tcp 1040 ------- 1 4.0 5.0 25 64
- 0.299464 3 5 tcp 1040 ------- 1 4.0 5.0 25 64
r 0.299472 3 5 tcp 1040 ------- 1 4.0 5.0 18 57
+ 0.299472 5 3 ack 40 ------- 1 5.0 4.0 18 74
- 0.299472 5 3 ack 40 ------- 1 5.0 4.0 18 74
+ 0.3 1 2 cbr 1000 ------- 2 1.0 0.0 25 75
- 0.3 1 2 cbr 1000 ------- 2 1.0 0.0 25 75
r 0.300296 4 3 tcp 1040 ------- 1 4.0 5.0 26 65
+ 0.300296 3 5 tcp 1040 ------- 1 4.0 5.0 26 65
- 0.300296 3 5 tcp 1040 ------- 1 4.0 5.0 26 65
r 0.300304 3 5 tcp 1040 ------- 1 4.0 5.0 19 58
+ 0.300304 5 3 ack 40 ------- 1 5.0 4.0 19 76
- 0.300304 5 3 ack 40 ------- 1 5.0 4.0 19 76
r 0.301128 4 3 tcp 1040 ------- 1 4.0 5.0 27 66
+ 0.301128 3 5 tcp 1040 ------- 1 4.0 5.0 27 66
- 0.301128 3 5 tcp 1040 ------- 1 4.0 5.0 27 66
r 0.301136 3 5 tcp 1040 ------- 1 4.0 5.0 20 59
+ 0.301136 5 3 ack 40 ------- 1 5.0 4.0 20 77
- 0.301136 5 3 ack 40 ------- 1 5.0 4.0 20 77
r 0.3014 3 0 cbr 1000 ------- 2 1.0 0.0 23 53
r 0.30196 4 3 tcp 1040 ------- 1 4.0 5.0 28 67
+ 0.30196 3 5 tcp 1040 ------- 1 4.0 5.0 28 67
- 0.30196 3 5 tcp 1040 ------- 1 4.0 5.0 28 67
r 0.301968 3 5 tcp 1040 ------- 1 4.0 5.0 21 60
+ 0.301968 5 3 ack 40 ------- 1 5.0 4.0 21 78
- 0.301968 5 3 ack 40 ------- 1 5.0 4.0 21 78
r 0.302008 5 3 ack 40 ------- 1 5.0 4.0 15 71
+ 0.302008 3 4 ack 40 ------- 1 5.0 4.0 15 71
- 0.302008 3 4 ack 40 ------- 1 5.0 4.0 15 71
r 0.302792 4 3 tcp 1040 ------- 1 4.0 5.0 29 68
+ 0.302792 3 5 tcp 1040 ------- 1 4.0 5.0 29 68
- 0.302792 3 5 tcp 1040 ------- 1 4.0 5.0 29 68
r 0.3028 3 5 tcp 1040 ------- 1 4.0 5.0 22 61
+ 0.3028 5 3 ack 40 ------- 1 5.0 4.0 22 79
- 0.3028 5 3 ack 40 ------- 1 5.0 4.0 22 79
r 0.30284 5 3 ack 40 ------- 1 5.0 4.0 16 72
+ 0.30284 3 4 ack 40 ------- 1 5.0 4.0 16 72
- 0.30284 3 4 ack 40 ------- 1 5.0 4.0 16 72
r 0.3036 2 3 cbr 1000 ------- 2 1.0 0.0 24 70
+ 0.3036 3 0 cbr 1000 ------- 2 1.0 0.0 24 70
- 0.3036 3 0 cbr 1000 ------- 2 1.0 0.0 24 70
r 0.303624 4 3 tcp 1040 ------- 1 4.0 5.0 30 69
+ 0.303624 3 5 tcp 1040 ------- 1 4.0 5.0 30 69
- 0.303624 3 5 tcp 1040 ------- 1 4.0 5.0 30 69
r 0.303632 3 5 tcp 1040 ------- 1 4.0 5.0 23 62
+ 0.303632 5 3 ack 40 ------- 1 5.0 4.0 23 80
- 0.303632 5 3 ack 40 ------- 1 5.0 4.0 23 80
r 0.303672 5 3 ack 40 ------- 1 5.0 4.0 17 73
+ 0.303672 3 4 ack 40 ------- 1 5.0 4.0 17 73
- 0.303672 3 4 ack 40 ------- 1 5.0 4.0 17 73
r 0.304464 3 5 tcp 1040 ------- 1 4.0 5.0 24 63
+ 0.304464 5 3 ack 40 ------- 1 5.0 4.0 24 81
- 0.304464 5 3 ack 40 ------- 1 5.0 4.0 24 81
r 0.304504 5 3 ack 40 ------- 1 5.0 4.0 18 74
+ 0.304504 3 4 ack 40 ------- 1 5.0 4.0 18 74
- 0.304504 3 4 ack 40 ------- 1 5.0 4.0 18 74
r 0.305296 3 5 tcp 1040 ------- 1 4.0 5.0 25 64
+ 0.305296 5 3 ack 40 ------- 1 5.0 4.0 25 82
- 0.305296 5 3 ack 40 ------- 1 5.0 4.0 25 82
r 0.305336 5 3 ack 40 ------- 1 5.0 4.0 19 76
+ 0.305336 3 4 ack 40 ------- 1 5.0 4.0 19 76
- 0.305336 3 4 ack 40 ------- 1 5.0 4.0 19 76
r 0.3058 1 2 cbr 1000 ------- 2 1.0 0.0 25 75
+ 0.3058 2 3 cbr 1000 ------- 2 1.0 0.0 25 75
- 0.3058 2 3 cbr 1000 ------- 2 1.0 0.0 25 75
r 0.306128 3 5 tcp 1040 ------- 1 4.0 5.0 26 65
+ 0.306128 5 3 ack 40 ------- 1 5.0 4.0 26 83
- 0.306128 5 3 ack 40 ------- 1 5.0 4.0 26 83
r 0.306168 5 3 ack 40 ------- 1 5.0 4.0 20 77
+ 0.306168 3 4 ack 40 ------- 1 5.0 4.0 20 77
- 0.306168 3 4 ack 40 ------- 1 5.0 4.0 20 77
r 0.30696 3 5 tcp 1040 ------- 1 4.0 5.0 27 66
+ 0.30696 5 3 ack 40 ------- 1 5.0 4.0 27 84
- 0.30696 5 3 ack 40 ------- 1 5.0 4.0 27 84
r 0.307 5 3 ack 40 ------- 1 5.0 4.0 21 78
+ 0.307 3 4 ack 40 ------- 1 5.0 4.0 21 78
- 0.307 3 4 ack 40 ------- 1 5.0 4.0 21 78
r 0.30704 3 4 ack 40 ------- 1 5.0 4.0 15 71
+ 0.30704 4 3 tcp 1040 ------- 1 4.0 5.0 31 85
- 0.30704 4 3 tcp 1040 ------- 1 4.0 5.0 31 85
+ 0.30704 4 3 tcp 1040 ------- 1 4.0 5.0 32 86
r 0.307792 3 5 tcp 1040 ------- 1 4.0 5.0 28 67
+ 0.307792 5 3 ack 40 ------- 1 5.0 4.0 28 87
- 0.307792 5 3 ack 40 ------- 1 5.0 4.0 28 87
r 0.307832 5 3 ack 40 ------- 1 5.0 4.0 22 79
+ 0.307832 3 4 ack 40 ------- 1 5.0 4.0 22 79
- 0.307832 3 4 ack 40 ------- 1 5.0 4.0 22 79
r 0.307872 3 4 ack 40 ------- 1 5.0 4.0 16 72
+ 0.307872 4 3 tcp 1040 ------- 1 4.0 5.0 33 88
+ 0.307872 4 3 tcp 1040 ------- 1 4.0 5.0 34 89
- 0.307872 4 3 tcp 1040 ------- 1 4.0 5.0 32 86
+ 0.308 1 2 cbr 1000 ------- 2 1.0 0.0 26 90
- 0.308 1 2 cbr 1000 ------- 2 1.0 0.0 26 90
r 0.308624 3 5 tcp 1040 ------- 1 4.0 5.0 29 68
+ 0.308624 5 3 ack 40 ------- 1 5.0 4.0 29 91
- 0.308624 5 3 ack 40 ------- 1 5.0 4.0 29 91
r 0.308664 5 3 ack 40 ------- 1 5.0 4.0 23 80
+ 0.308664 3 4 ack 40 ------- 1 5.0 4.0 23 80
- 0.308664 3 4 ack 40 ------- 1 5.0 4.0 23 80
r 0.308704 3 4 ack 40 ------- 1 5.0 4.0 17 73
+ 0.308704 4 3 tcp 1040 ------- 1 4.0 5.0 35 92
+ 0.308704 4 3 tcp 1040 ------- 1 4.0 5.0 36 93
- 0.308704 4 3 tcp 1040 ------- 1 4.0 5.0 33 88
r 0.3094 3 0 cbr 1000 ------- 2 1.0 0.0 24 70
r 0.309456 3 5 tcp 1040 ------- 1 4.0 5.0 30 69
+ 0.309456 5 3 ack 40 ------- 1 5.0 4.0 30 94
- 0.309456 5 3 ack 40 ------- 1 5.0 4.0 30 94
r 0.309496 5 3 ack 40 ------- 1 5.0 4.0 24 81
+ 0.309496 3 4 ack 40 ------- 1 5.0 4.0 24 81
- 0.309496 3 4 ack 40 ------- 1 5.0 4.0 24 81
r 0.309536 3 4 ack 40 ------- 1 5.0 4.0 18 74
+ 0.309536 4 3 tcp 1040 ------- 1 4.0 5.0 37 95
+ 0.309536 4 3 tcp 1040 ------- 1 4.0 5.0 38 96
- 0.309536 4 3 tcp 1040 ------- 1 4.0 5.0 34 89
r 0.310328 5 3 ack 40 ------- 1 5.0 4.0 25 82
+ 0.310328 3 4 ack 40 ------- 1 5.0 4.0 25 82
- 0.310328 3 4 ack 40 ------- 1 5.0 4.0 25 82
r 0.310368 3 4 ack 40 ------- 1 5.0 4.0 19 76
+ 0.310368 4 3 tcp 1040 ------- 1 4.0 5.0 39 97
- 0.310368 4 3 tcp 1040 ------- 1 4.0 5.0 35 92
r 0.31116 5 3 ack 40 ------- 1 5.0 4.0 26 83
+ 0.31116 3 4 ack 40 ------- 1 5.0 4.0 26 83
- 0.31116 3 4 ack 40 ------- 1 5.0 4.0 26 83
r 0.3112 3 4 ack 40 ------- 1 5.0 4.0 20 77
+ 0.3112 4 3 tcp 1040 ------- 1 4.0 5.0 40 98
- 0.3112 4 3 tcp 1040 ------- 1 4.0 5.0 36 93
r 0.3116 2 3 cbr 1000 ------- 2 1.0 0.0 25 75
+ 0.3116 3 0 cbr 1000 ------- 2 1.0 0.0 25 75
- 0.3116 3 0 cbr 1000 ------- 2 1.0 0.0 25 75
r 0.311992 5 3 ack 40 ------- 1 5.0 4.0 27 84
+ 0.311992 3 4 ack 40 ------- 1 5.0 4.0 27 84
- 0.311992 3 4 ack 40 ------- 1 5.0 4.0 27 84
r 0.312032 3 4 ack 40 ------- 1 5.0 4.0 21 78
+ 0.312032 4 3 tcp 1040 ------- 1 4.0 5.0 41 99
- 0.312032 4 3 tcp 1040 ------- 1 4.0 5.0 37 95
r 0.312824 5 3 ack 40 ------- 1 5.0 4.0 28 87
+ 0.312824 3 4 ack 40 ------- 1 5.0 4.0 28 87
- 0.312824 3 4 ack 40 ------- 1 5.0 4.0 28 87
r 0.312864 3 4 ack 40 ------- 1 5.0 4.0 22 79
+ 0.312864 4 3 tcp 1040 ------- 1 4.0 5.0 42 100
- 0.312864 4 3 tcp 1040 ------- 1 4.0 5.0 38 96
r 0.312872 4 3 tcp 1040 ------- 1 4.0 5.0 31 85
+ 0.312872 3 5 tcp 1040 ------- 1 4.0 5.0 31 85
- 0.312872 3 5 tcp 1040 ------- 1 4.0 5.0 31 85
r 0.313656 5 3 ack 40 ------- 1 5.0 4.0 29 91
+ 0.313656 3 4 ack 40 ------- 1 5.0 4.0 29 91
- 0.313656 3 4 ack 40 ------- 1 5.0 4.0 29 91
r 0.313696 3 4 ack 40 ------- 1 5.0 4.0 23 80
+ 0.313696 4 3 tcp 1040 ------- 1 4.0 5.0 43 101
- 0.313696 4 3 tcp 1040 ------- 1 4.0 5.0 39 97
r 0.313704 4 3 tcp 1040 ------- 1 4.0 5.0 32 86
+ 0.313704 3 5 tcp 1040 ------- 1 4.0 5.0 32 86
- 0.313704 3 5 tcp 1040 ------- 1 4.0 5.0 32 86
r 0.3138 1 2 cbr 1000 ------- 2 1.0 0.0 26 90
+ 0.3138 2 3 cbr 1000 ------- 2 1.0 0.0 26 90
- 0.3138 2 3 cbr 1000 ------- 2 1.0 0.0 26 90
r 0.314488 5 3 ack 40 ------- 1 5.0 4.0 30 94
+ 0.314488 3 4 ack 40 ------- 1 5.0 4.0 30 94
- 0.314488 3 4 ack 40 ------- 1 5.0 4.0 30 94
r 0.314528 3 4 ack 40 ------- 1 5.0 4.0 24 81
+ 0.314528 4 3 tcp 1040 ------- 1 4.0 5.0 44 102
- 0.314528 4 3 tcp 1040 ------- 1 4.0 5.0 40 98
r 0.314536 4 3 tcp 1040 ------- 1 4.0 5.0 33 88
+ 0.314536 3 5 tcp 1040 ------- 1 4.0 5.0 33 88
- 0.314536 3 5 tcp 1040 ------- 1 4.0 5.0 33 88
r 0.31536 3 4 ack 40 ------- 1 5.0 4.0 25 82
+ 0.31536 4 3 tcp 1040 ------- 1 4.0 5.0 45 103
- 0.31536 4 3 tcp 1040 ------- 1 4.0 5.0 41 99
r 0.315368 4 3 tcp 1040 ------- 1 4.0 5.0 34 89
+ 0.315368 3 5 tcp 1040 ------- 1 4.0 5.0 34 89
- 0.315368 3 5 tcp 1040 ------- 1 4.0 5.0 34 89
+ 0.316 1 2 cbr 1000 ------- 2 1.0 0.0 27 104
- 0.316 1 2 cbr 1000 ------- 2 1.0 0.0 27 104
r 0.316192 3 4 ack 40 ------- 1 5.0 4.0 26 83
+ 0.316192 4 3 tcp 1040 ------- 1 4.0 5.0 46 105
- 0.316192 4 3 tcp 1040 ------- 1 4.0 5.0 42 100
r 0.3162 4 3 tcp 1040 ------- 1 4.0 5.0 35 92
+ 0.3162 3 5 tcp 1040 ------- 1 4.0 5.0 35 92
- 0.3162 3 5 tcp 1040 ------- 1 4.0 5.0 35 92
r 0.317024 3 4 ack 40 ------- 1 5.0 4.0 27 84