+ 0.1 1 4 cbr 1000 ------- 2 1.0 0.0 0 0
- 0.1 1 4 cbr 1000 ------- 2 1.0 0.0 0 0
r 0.1058 1 4 cbr 1000 ------- 2 1.0 0.0 0 0
+ 0.1058 4 0 cbr 1000 ------- 2 1.0 0.0 0 0
- 0.1058 4 0 cbr 1000 ------- 2 1.0 0.0 0 0
+ 0.108 1 4 cbr 1000 ------- 2 1.0 0.0 1 1
- 0.108 1 4 cbr 1000 ------- 2 1.0 0.0 1 1
r 0.1116 4 0 cbr 1000 ------- 2 1.0 0.0 0 0
r 0.1138 1 4 cbr 1000 ------- 2 1.0 0.0 1 1
+ 0.1138 4 0 cbr 1000 ------- 2 1.0 0.0 1 1
- 0.1138 4 0 cbr 1000 ------- 2 1.0 0.0 1 1
+ 0.116 1 4 cbr 1000 ------- 2 1.0 0.0 2 2
- 0.116 1 4 cbr 1000 ------- 2 1.0 0.0 2 2
r 0.1196 4 0 cbr 1000 ------- 2 1.0 0.0 1 1
r 0.1218 1 4 cbr 1000 ------- 2 1.0 0.0 2 2
+ 0.1218 4 0 cbr 1000 ------- 2 1.0 0.0 2 2
- 0.1218 4 0 cbr 1000 ------- 2 1.0 0.0 2 2
+ 0.124 1 4 cbr 1000 ------- 2 1.0 0.0 3 3
- 0.124 1 4 cbr 1000 ------- 2 1.0 0.0 3 3
r 0.1276 4 0 cbr 1000 ------- 2 1.0 0.0 2 2
r 0.1298 1 4 cbr 1000 ------- 2 1.0 0.0 3 3
+ 0.1298 4 0 cbr 1000 ------- 2 1.0 0.0 3 3
- 0.1298 4 0 cbr 1000 ------- 2 1.0 0.0 3 3
+ 0.132 1 4 cbr 1000 ------- 2 1.0 0.0 4 4
- 0.132 1 4 cbr 1000 ------- 2 1.0 0.0 4 4
r 0.1356 4 0 cbr 1000 ------- 2 1.0 0.0 3 3
r 0.1378 1 4 cbr 1000 ------- 2 1.0 0.0 4 4
+ 0.1378 4 0 cbr 1000 ------- 2 1.0 0.0 4 4
- 0.1378 4 0 cbr 1000 ------- 2 1.0 0.0 4 4
+ 0.14 1 4 cbr 1000 ------- 2 1.0 0.0 5 5
- 0.14 1 4 cbr 1000 ------- 2 1.0 0.0 5 5
r 0.1436 4 0 cbr 1000 ------- 2 1.0 0.0 4 4
r 0.1458 1 4 cbr 1000 ------- 2 1.0 0.0 5 5
+ 0.1458 4 0 cbr 1000 ------- 2 1.0 0.0 5 5
- 0.1458 4 0 cbr 1000 ------- 2 1.0 0.0 5 5
+ 0.148 1 4 cbr 1000 ------- 2 1.0 0.0 6 6
- 0.148 1 4 cbr 1000 ------- 2 1.0 0.0 6 6
r 0.1516 4 0 cbr 1000 ------- 2 1.0 0.0 5 5
r 0.1538 1 4 cbr 1000 ------- 2 1.0 0.0 6 6
+ 0.1538 4 0 cbr 1000 ------- 2 1.0 0.0 6 6
- 0.1538 4 0 cbr 1000 ------- 2 1.0 0.0 6 6
+ 0.156 1 4 cbr 1000 ------- 2 1.0 0.0 7 7
- 0.156 1 4 cbr 1000 ------- 2 1.0 0.0 7 7
r 0.1596 4 0 cbr 1000 ------- 2 1.0 0.0 6 6
r 0.1618 1 4 cbr 1000 ------- 2 1.0 0.0 7 7
+ 0.1618 4 0 cbr 1000 ------- 2 1.0 0.0 7 7
- 0.1618 4 0 cbr 1000 ------- 2 1.0 0.0 7 7
+ 0.164 1 4 cbr 1000 ------- 2 1.0 0.0 8 8
- 0.164 1 4 cbr 1000 ------- 2 1.0 0.0 8 8
r 0.1676 4 0 cbr 1000 ------- 2 1.0 0.0 7 7
r 0.1698 1 4 cbr 1000 ------- 2 1.0 0.0 8 8
+ 0.1698 4 0 cbr 1000 ------- 2 1.0 0.0 8 8
- 0.1698 4 0 cbr 1000 ------- 2 1.0 0.0 8 8
+ 0.172 1 4 cbr 1000 ------- 2 1.0 0.0 9 9
- 0.172 1 4 cbr 1000 ------- 2 1.0 0.0 9 9
r 0.1756 4 0 cbr 1000 ------- 2 1.0 0.0 8 8
r 0.1778 1 4 cbr 1000 ------- 2 1.0 0.0 9 9
+ 0.1778 4 0 cbr 1000 ------- 2 1.0 0.0 9 9
- 0.1778 4 0 cbr 1000 ------- 2 1.0 0.0 9 9
+ 0.18 1 4 cbr 1000 ------- 2 1.0 0.0 10 10
- 0.18 1 4 cbr 1000 ------- 2 1.0 0.0 10 10
r 0.1836 4 0 cbr 1000 ------- 2 1.0 0.0 9 9
r 0.1858 1 4 cbr 1000 ------- 2 1.0 0.0 10 10
+ 0.1858 4 0 cbr 1000 ------- 2 1.0 0.0 10 10
- 0.1858 4 0 cbr 1000 ------- 2 1.0 0.0 10 10
+ 0.188 1 4 cbr 1000 ------- 2 1.0 0.0 11 11
- 0.188 1 4 cbr 1000 ------- 2 1.0 0.0 11 11
r 0.1916 4 0 cbr 1000 ------- 2 1.0 0.0 10 10
r 0.1938 1 4 cbr 1000 ------- 2 1.0 0.0 11 11
+ 0.1938 4 0 cbr 1000 ------- 2 1.0 0.0 11 11
- 0.1938 4 0 cbr 1000 ------- 2 1.0 0.0 11 11
+ 0.196 1 4 cbr 1000 ------- 2 1.0 0.0 12 12
- 0.196 1 4 cbr 1000 ------- 2 1.0 0.0 12 12
r 0.1996 4 0 cbr 1000 ------- 2 1.0 0.0 11 11
+ 0.2 6 5 tcp 40 ------- 1 6.0 2.0 0 13
- 0.2 6 5 tcp 40 ------- 1 6.0 2.0 0 13
r 0.2018 1 4 cbr 1000 ------- 2 1.0 0.0 12 12
+ 0.2018 4 0 cbr 1000 ------- 2 1.0 0.0 12 12
- 0.2018 4 0 cbr 1000 ------- 2 1.0 0.0 12 12
+ 0.204 1 4 cbr 1000 ------- 2 1.0 0.0 13 14
- 0.204 1 4 cbr 1000 ------- 2 1.0 0.0 13 14
r 0.205032 6 5 tcp 40 ------- 1 6.0 2.0 0 13
+ 0.205032 5 4 tcp 40 ------- 1 6.0 2.0 0 13
- 0.205032 5 4 tcp 40 ------- 1 6.0 2.0 0 13
r 0.2076 4 0 cbr 1000 ------- 2 1.0 0.0 12 12
r 0.2098 1 4 cbr 1000 ------- 2 1.0 0.0 13 14
+ 0.2098 4 0 cbr 1000 ------- 2 1.0 0.0 13 14
- 0.2098 4 0 cbr 1000 ------- 2 1.0 0.0 13 14
r 0.210064 5 4 tcp 40 ------- 1 6.0 2.0 0 13
+ 0.210064 4 3 tcp 40 ------- 1 6.0 2.0 0 13
- 0.210064 4 3 tcp 40 ------- 1 6.0 2.0 0 13
+ 0.212 1 4 cbr 1000 ------- 2 1.0 0.0 14 15
- 0.212 1 4 cbr 1000 ------- 2 1.0 0.0 14 15
r 0.215096 4 3 tcp 40 ------- 1 6.0 2.0 0 13
+ 0.215096 3 2 tcp 40 ------- 1 6.0 2.0 0 13
- 0.215096 3 2 tcp 40 ------- 1 6.0 2.0 0 13
r 0.2156 4 0 cbr 1000 ------- 2 1.0 0.0 13 14
r 0.2178 1 4 cbr 1000 ------- 2 1.0 0.0 14 15
+ 0.2178 4 0 cbr 1000 ------- 2 1.0 0.0 14 15
- 0.2178 4 0 cbr 1000 ------- 2 1.0 0.0 14 15
+ 0.22 1 4 cbr 1000 ------- 2 1.0 0.0 15 16
- 0.22 1 4 cbr 1000 ------- 2 1.0 0.0 15 16
r 0.220128 3 2 tcp 40 ------- 1 6.0 2.0 0 13
+ 0.220128 2 3 ack 40 ------- 1 2.0 6.0 0 17
- 0.220128 2 3 ack 40 ------- 1 2.0 6.0 0 17
r 0.2236 4 0 cbr 1000 ------- 2 1.0 0.0 14 15
r 0.22516 2 3 ack 40 ------- 1 2.0 6.0 0 17
+ 0.22516 3 4 ack 40 ------- 1 2.0 6.0 0 17
- 0.22516 3 4 ack 40 ------- 1 2.0 6.0 0 17
r 0.2258 1 4 cbr 1000 ------- 2 1.0 0.0 15 16
+ 0.2258 4 0 cbr 1000 ------- 2 1.0 0.0 15 16
- 0.2258 4 0 cbr 1000 ------- 2 1.0 0.0 15 16
+ 0.228 1 4 cbr 1000 ------- 2 1.0 0.0 16 18
- 0.228 1 4 cbr 1000 ------- 2 1.0 0.0 16 18
r 0.230192 3 4 ack 40 ------- 1 2.0 6.0 0 17
+ 0.230192 4 5 ack 40 ------- 1 2.0 6.0 0 17
- 0.230192 4 5 ack 40 ------- 1 2.0 6.0 0 17
r 0.2316 4 0 cbr 1000 ------- 2 1.0 0.0 15 16
r 0.2338 1 4 cbr 1000 ------- 2 1.0 0.0 16 18
+ 0.2338 4 0 cbr 1000 ------- 2 1.0 0.0 16 18
- 0.2338 4 0 cbr 1000 ------- 2 1.0 0.0 16 18
r 0.235224 4 5 ack 40 ------- 1 2.0 6.0 0 17
+ 0.235224 5 6 ack 40 ------- 1 2.0 6.0 0 17
- 0.235224 5 6 ack 40 ------- 1 2.0 6.0 0 17
+ 0.236 1 4 cbr 1000 ------- 2 1.0 0.0 17 19
- 0.236 1 4 cbr 1000 ------- 2 1.0 0.0 17 19
r 0.2396 4 0 cbr 1000 ------- 2 1.0 0.0 16 18
r 0.240256 5 6 ack 40 ------- 1 2.0 6.0 0 17
+ 0.240256 6 5 tcp 1040 ------- 1 6.0 2.0 1 20
- 0.240256 6 5 tcp 1040 ------- 1 6.0 2.0 1 20
+ 0.240256 6 5 tcp 1040 ------- 1 6.0 2.0 2 21
- 0.241088 6 5 tcp 1040 ------- 1 6.0 2.0 2 21
r 0.2418 1 4 cbr 1000 ------- 2 1.0 0.0 17 19
+ 0.2418 4 0 cbr 1000 ------- 2 1.0 0.0 17 19
- 0.2418 4 0 cbr 1000 ------- 2 1.0 0.0 17 19
+ 0.244 1 4 cbr 1000 ------- 2 1.0 0.0 18 22
- 0.244 1 4 cbr 1000 ------- 2 1.0 0.0 18 22
r 0.246088 6 5 tcp 1040 ------- 1 6.0 2.0 1 20
+ 0.246088 5 4 tcp 1040 ------- 1 6.0 2.0 1 20
- 0.246088 5 4 tcp 1040 ------- 1 6.0 2.0 1 20
r 0.24692 6 5 tcp 1040 ------- 1 6.0 2.0 2 21
+ 0.24692 5 4 tcp 1040 ------- 1 6.0 2.0 2 21
- 0.24692 5 4 tcp 1040 ------- 1 6.0 2.0 2 21
r 0.2476 4 0 cbr 1000 ------- 2 1.0 0.0 17 19
r 0.2498 1 4 cbr 1000 ------- 2 1.0 0.0 18 22
+ 0.2498 4 0 cbr 1000 ------- 2 1.0 0.0 18 22
- 0.2498 4 0 cbr 1000 ------- 2 1.0 0.0 18 22
r 0.25192 5 4 tcp 1040 ------- 1 6.0 2.0 1 20
+ 0.25192 4 3 tcp 1040 ------- 1 6.0 2.0 1 20
- 0.25192 4 3 tcp 1040 ------- 1 6.0 2.0 1 20
+ 0.252 1 4 cbr 1000 ------- 2 1.0 0.0 19 23
- 0.252 1 4 cbr 1000 ------- 2 1.0 0.0 19 23
r 0.252752 5 4 tcp 1040 ------- 1 6.0 2.0 2 21
+ 0.252752 4 3 tcp 1040 ------- 1 6.0 2.0 2 21
- 0.252752 4 3 tcp 1040 ------- 1 6.0 2.0 2 21
r 0.2556 4 0 cbr 1000 ------- 2 1.0 0.0 18 22
r 0.257752 4 3 tcp 1040 ------- 1 6.0 2.0 1 20
+ 0.257752 3 2 tcp 1040 ------- 1 6.0 2.0 1 20
- 0.257752 3 2 tcp 1040 ------- 1 6.0 2.0 1 20
r 0.2578 1 4 cbr 1000 ------- 2 1.0 0.0 19 23
+ 0.2578 4 0 cbr 1000 ------- 2 1.0 0.0 19 23
- 0.2578 4 0 cbr 1000 ------- 2 1.0 0.0 19 23
r 0.258584 4 3 tcp 1040 ------- 1 6.0 2.0 2 21
+ 0.258584 3 2 tcp 1040 ------- 1 6.0 2.0 2 21
- 0.258584 3 2 tcp 1040 ------- 1 6.0 2.0 2 21
+ 0.26 1 4 cbr 1000 ------- 2 1.0 0.0 20 24
- 0.26 1 4 cbr 1000 ------- 2 1.0 0.0 20 24
r 0.263584 3 2 tcp 1040 ------- 1 6.0 2.0 1 20
+ 0.263584 2 3 ack 40 ------- 1 2.0 6.0 1 25
- 0.263584 2 3 ack 40 ------- 1 2.0 6.0 1 25
r 0.2636 4 0 cbr 1000 ------- 2 1.0 0.0 19 23
r 0.264416 3 2 tcp 1040 ------- 1 6.0 2.0 2 21
+ 0.264416 2 3 ack 40 ------- 1 2.0 6.0 2 26
- 0.264416 2 3 ack 40 ------- 1 2.0 6.0 2 26
r 0.2658 1 4 cbr 1000 ------- 2 1.0 0.0 20 24
+ 0.2658 4 0 cbr 1000 ------- 2 1.0 0.0 20 24
- 0.2658 4 0 cbr 1000 ------- 2 1.0 0.0 20 24
+ 0.268 1 4 cbr 1000 ------- 2 1.0 0.0 21 27
- 0.268 1 4 cbr 1000 ------- 2 1.0 0.0 21 27
r 0.268616 2 3 ack 40 ------- 1 2.0 6.0 1 25
+ 0.268616 3 4 ack 40 ------- 1 2.0 6.0 1 25
- 0.268616 3 4 ack 40 ------- 1 2.0 6.0 1 25
r 0.269448 2 3 ack 40 ------- 1 2.0 6.0 2 26
+ 0.269448 3 4 ack 40 ------- 1 2.0 6.0 2 26
- 0.269448 3 4 ack 40 ------- 1 2.0 6.0 2 26
r 0.2716 4 0 cbr 1000 ------- 2 1.0 0.0 20 24
r 0.273648 3 4 ack 40 ------- 1 2.0 6.0 1 25
+ 0.273648 4 5 ack 40 ------- 1 2.0 6.0 1 25
- 0.273648 4 5 ack 40 ------- 1 2.0 6.0 1 25
r 0.2738 1 4 cbr 1000 ------- 2 1.0 0.0 21 27
+ 0.2738 4 0 cbr 1000 ------- 2 1.0 0.0 21 27
- 0.2738 4 0 cbr 1000 ------- 2 1.0 0.0 21 27
r 0.27448 3 4 ack 40 ------- 1 2.0 6.0 2 26
+ 0.27448 4 5 ack 40 ------- 1 2.0 6.0 2 26
- 0.27448 4 5 ack 40 ------- 1 2.0 6.0 2 26
+ 0.276 1 4 cbr 1000 ------- 2 1.0 0.0 22 28
- 0.276 1 4 cbr 1000 ------- 2 1.0 0.0 22 28
r 0.27868 4 5 ack 40 ------- 1 2.0 6.0 1 25
+ 0.27868 5 6 ack 40 ------- 1 2.0 6.0 1 25
- 0.27868 5 6 ack 40 ------- 1 2.0 6.0 1 25
r 0.279512 4 5 ack 40 ------- 1 2.0 6.0 2 26
+ 0.279512 5 6 ack 40 ------- 1 2.0 6.0 2 26
- 0.279512 5 6 ack 40 ------- 1 2.0 6.0 2 26
r 0.2796 4 0 cbr 1000 ------- 2 1.0 0.0 21 27
r 0.2818 1 4 cbr 1000 ------- 2 1.0 0.0 22 28
+ 0.2818 4 0 cbr 1000 ------- 2 1.0 0.0 22 28
- 0.2818 4 0 cbr 1000 ------- 2 1.0 0.0 22 28
r 0.283712 5 6 ack 40 ------- 1 2.0 6.0 1 25
+ 0.283712 6 5 tcp 1040 ------- 1 6.0 2.0 3 29
- 0.283712 6 5 tcp 1040 ------- 1 6.0 2.0 3 29
+ 0.283712 6 5 tcp 1040 ------- 1 6.0 2.0 4 30
+ 0.284 1 4 cbr 1000 ------- 2 1.0 0.0 23 31
- 0.284 1 4 cbr 1000 ------- 2 1.0 0.0 23 31
r 0.284544 5 6 ack 40 ------- 1 2.0 6.0 2 26
+ 0.284544 6 5 tcp 1040 ------- 1 6.0 2.0 5 32
+ 0.284544 6 5 tcp 1040 ------- 1 6.0 2.0 6 33
- 0.284544 6 5 tcp 1040 ------- 1 6.0 2.0 4 30
- 0.285376 6 5 tcp 1040 ------- 1 6.0 2.0 5 32
- 0.286208 6 5 tcp 1040 ------- 1 6.0 2.0 6 33
r 0.2876 4 0 cbr 1000 ------- 2 1.0 0.0 22 28
r 0.289544 6 5 tcp 1040 ------- 1 6.0 2.0 3 29
+ 0.289544 5 4 tcp 1040 ------- 1 6.0 2.0 3 29
- 0.289544 5 4 tcp 1040 ------- 1 6.0 2.0 3 29
r 0.2898 1 4 cbr 1000 ------- 2 1.0 0.0 23 31
+ 0.2898 4 0 cbr 1000 ------- 2 1.0 0.0 23 31
- 0.2898 4 0 cbr 1000 ------- 2 1.0 0.0 23 31
r 0.290376 6 5 tcp 1040 ------- 1 6.0 2.0 4 30
+ 0.290376 5 4 tcp 1040 ------- 1 6.0 2.0 4 30
- 0.290376 5 4 tcp 1040 ------- 1 6.0 2.0 4 30
r 0.291208 6 5 tcp 1040 ------- 1 6.0 2.0 5 32
+ 0.291208 5 4 tcp 1040 ------- 1 6.0 2.0 5 32
- 0.291208 5 4 tcp 1040 ------- 1 6.0 2.0 5 32
+ 0.292 1 4 cbr 1000 ------- 2 1.0 0.0 24 34
- 0.292 1 4 cbr 1000 ------- 2 1.0 0.0 24 34
r 0.29204 6 5 tcp 1040 ------- 1 6.0 2.0 6 33
+ 0.29204 5 4 tcp 1040 ------- 1 6.0 2.0 6 33
- 0.29204 5 4 tcp 1040 ------- 1 6.0 2.0 6 33
r 0.295376 5 4 tcp 1040 ------- 1 6.0 2.0 3 29
+ 0.295376 4 3 tcp 1040 ------- 1 6.0 2.0 3 29
- 0.295376 4 3 tcp 1040 ------- 1 6.0 2.0 3 29
r 0.2956 4 0 cbr 1000 ------- 2 1.0 0.0 23 31
r 0.296208 5 4 tcp 1040 ------- 1 6.0 2.0 4 30
+ 0.296208 4 3 tcp 1040 ------- 1 6.0 2.0 4 30
- 0.296208 4 3 tcp 1040 ------- 1 6.0 2.0 4 30
r 0.29704 5 4 tcp 1040 ------- 1 6.0 2.0 5 32
+ 0.29704 4 3 tcp 1040 ------- 1 6.0 2.0 5 32
- 0.29704 4 3 tcp 1040 ------- 1 6.0 2.0 5 32
r 0.2978 1 4 cbr 1000 ------- 2 1.0 0.0 24 34
+ 0.2978 4 0 cbr 1000 ------- 2 1.0 0.0 24 34
- 0.2978 4 0 cbr 1000 ------- 2 1.0 0.0 24 34
r 0.297872 5 4 tcp 1040 ------- 1 6.0 2.0 6 33
+ 0.297872 4 3 tcp 1040 ------- 1 6.0 2.0 6 33
- 0.297872 4 3 tcp 1040 ------- 1 6.0 2.0 6 33
+ 0.3 1 4 cbr 1000 ------- 2 1.0 0.0 25 35
- 0.3 1 4 cbr 1000 ------- 2 1.0 0.0 25 35
r 0.301208 4 3 tcp 1040 ------- 1 6.0 2.0 3 29
+ 0.301208 3 2 tcp 1040 ------- 1 6.0 2.0 3 29
- 0.301208 3 2 tcp 1040 ------- 1 6.0 2.0 3 29
r 0.30204 4 3 tcp 1040 ------- 1 6.0 2.0 4 30
+ 0.30204 3 2 tcp 1040 ------- 1 6.0 2.0 4 30
- 0.30204 3 2 tcp 1040 ------- 1 6.0 2.0 4 30
r 0.302872 4 3 tcp 1040 ------- 1 6.0 2.0 5 32
+ 0.302872 3 2 tcp 1040 ------- 1 6.0 2.0 5 32
- 0.302872 3 2 tcp 1040 ------- 1 6.0 2.0 5 32
r 0.3036 4 0 cbr 1000 ------- 2 1.0 0.0 24 34
r 0.303704 4 3 tcp 1040 ------- 1 6.0 2.0 6 33
+ 0.303704 3 2 tcp 1040 ------- 1 6.0 2.0 6 33
- 0.303704 3 2 tcp 1040 ------- 1 6.0 2.0 6 33
r 0.3058 1 4 cbr 1000 ------- 2 1.0 0.0 25 35
+ 0.3058 4 0 cbr 1000 ------- 2 1.0 0.0 25 35
- 0.3058 4 0 cbr 1000 ------- 2 1.0 0.0 25 35
r 0.30704 3 2 tcp 1040 ------- 1 6.0 2.0 3 29
+ 0.30704 2 3 ack 40 ------- 1 2.0 6.0 3 36
- 0.30704 2 3 ack 40 ------- 1 2.0 6.0 3 36
r 0.307872 3 2 tcp 1040 ------- 1 6.0 2.0 4 30
+ 0.307872 2 3 ack 40 ------- 1 2.0 6.0 4 37
- 0.307872 2 3 ack 40 ------- 1 2.0 6.0 4 37
+ 0.308 1 4 cbr 1000 ------- 2 1.0 0.0 26 38
- 0.308 1 4 cbr 1000 ------- 2 1.0 0.0 26 38
r 0.308704 3 2 tcp 1040 ------- 1 6.0 2.0 5 32
+ 0.308704 2 3 ack 40 ------- 1 2.0 6.0 5 39
- 0.308704 2 3 ack 40 ------- 1 2.0 6.0 5 39
r 0.309536 3 2 tcp 1040 ------- 1 6.0 2.0 6 33
+ 0.309536 2 3 ack 40 ------- 1 2.0 6.0 6 40
- 0.309536 2 3 ack 40 ------- 1 2.0 6.0 6 40
r 0.3116 4 0 cbr 1000 ------- 2 1.0 0.0 25 35
r 0.312072 2 3 ack 40 ------- 1 2.0 6.0 3 36
+ 0.312072 3 4 ack 40 ------- 1 2.0 6.0 3 36
- 0.312072 3 4 ack 40 ------- 1 2.0 6.0 3 36
r 0.312904 2 3 ack 40 ------- 1 2.0 6.0 4 37
+ 0.312904 3 4 ack 40 ------- 1 2.0 6.0 4 37
- 0.312904 3 4 ack 40 ------- 1 2.0 6.0 4 37
r 0.313736 2 3 ack 40 ------- 1 2.0 6.0 5 39
+ 0.313736 3 4 ack 40 ------- 1 2.0 6.0 5 39
- 0.313736 3 4 ack 40 ------- 1 2.0 6.0 5 39
r 0.3138 1 4 cbr 1000 ------- 2 1.0 0.0 26 38
+ 0.3138 4 0 cbr 1000 ------- 2 1.0 0.0 26 38
- 0.3138 4 0 cbr 1000 ------- 2 1.0 0.0 26 38
r 0.314568 2 3 ack 40 ------- 1 2.0 6.0 6 40
+ 0.314568 3 4 ack 40 ------- 1 2.0 6.0 6 40
- 0.314568 3 4 ack 40 ------- 1 2.0 6.0 6 40
+ 0.316 1 4 cbr 1000 ------- 2 1.0 0.0 27 41
- 0.316 1 4 cbr 1000 ------- 2 1.0 0.0 27 41
r 0.317104 3 4 ack 40 ------- 1 2.0 6.0 3 36
+ 0.317104 4 5 ack 40 ------- 1 2.0 6.0 3 36
- 0.317104 4 5 ack 40 ------- 1 2.0 6.0 3 36
r 0.317936 3 4 ack 40 ------- 1 2.0 6.0 4 37
+ 0.317936 4 5 ack 40 ------- 1 2.0 6.0 4 37
- 0.317936 4 5 ack 40 ------- 1 2.0 6.0 4 37
r 0.318768 3 4 ack 40 ------- 1 2.0 6.0 5 39
+ 0.318768 4 5 ack 40 ------- 1 2.0 6.0 5 39
- 0.318768 4 5 ack 40 ------- 1 2.0 6.0 5 39
r 0.3196 3 4 ack 40 ------- 1 2.0 6.0 6 40
+ 0.3196 4 5 ack 40 ------- 1 2.0 6.0 6 40
- 0.3196 4 5 ack 40 ------- 1 2.0 6.0 6 40
r 0.3196 4 0 cbr 1000 ------- 2 1.0 0.0 26 38
r 0.3218 1 4 cbr 1000 ------- 2 1.0 0.0 27 41
+ 0.3218 4 0 cbr 1000 ------- 2 1.0 0.0 27 41
- 0.3218 4 0 cbr 1000 ------- 2 1.0 0.0 27 41
r 0.322136 4 5 ack 40 ------- 1 2.0 6.0 3 36
+ 0.322136 5 6 ack 40 ------- 1 2.0 6.0 3 36
- 0.322136 5 6 ack 40 ------- 1 2.0 6.0 3 36
r 0.322968 4 5 ack 40 ------- 1 2.0 6.0 4 37
+ 0.322968 5 6 ack 40 ------- 1 2.0 6.0 4 37
- 0.322968 5 6 ack 40 ------- 1 2.0 6.0 4 37
r 0.3238 4 5 ack 40 ------- 1 2.0 6.0 5 39
+ 0.3238 5 6 ack 40 ------- 1 2.0 6.0 5 39
- 0.3238 5 6 ack 40 ------- 1 2.0 6.0 5 39
+ 0.324 1 4 cbr 1000 ------- 2 1.0 0.0 28 42
- 0.324 1 4 cbr 1000 ------- 2 1.0 0.0 28 42
r 0.324632 4 5 ack 40 ------- 1 2.0 6.0 6 40
+ 0.324632 5 6 ack 40 ------- 1 2.0 6.0 6 40
- 0.324632 5 6 ack 40 ------- 1 2.0 6.0 6 40
r 0.327168 5 6 ack 40 ------- 1 2.0 6.0 3 36
+ 0.327168 6 5 tcp 1040 ------- 1 6.0 2.0 7 43
- 0.327168 6 5 tcp 1040 ------- 1 6.0 2.0 7 43
+ 0.327168 6 5 tcp 1040 ------- 1 6.0 2.0 8 44
r 0.3276 4 0 cbr 1000 ------- 2 1.0 0.0 27 41
r 0.328 5 6 ack 40 ------- 1 2.0 6.0 4 37
+ 0.328 6 5 tcp 1040 ------- 1 6.0 2.0 9 45
+ 0.328 6 5 tcp 1040 ------- 1 6.0 2.0 10 46
- 0.328 6 5 tcp 1040 ------- 1 6.0 2.0 8 44
r 0.328832 5 6 ack 40 ------- 1 2.0 6.0 5 39
+ 0.328832 6 5 tcp 1040 ------- 1 6.0 2.0 11 47
+ 0.328832 6 5 tcp 1040 ------- 1 6.0 2.0 12 48
- 0.328832 6 5 tcp 1040 ------- 1 6.0 2.0 9 45
r 0.329664 5 6 ack 40 ------- 1 2.0 6.0 6 40
+ 0.329664 6 5 tcp 1040 ------- 1 6.0 2.0 13 49
+ 0.329664 6 5 tcp 1040 ------- 1 6.0 2.0 14 50
- 0.329664 6 5 tcp 1040 ------- 1 6.0 2.0 10 46
r 0.3298 1 4 cbr 1000 ------- 2 1.0 0.0 28 42
+ 0.3298 4 0 cbr 1000 ------- 2 1.0 0.0 28 42
- 0.3298 4 0 cbr 1000 ------- 2 1.0 0.0 28 42
- 0.330496 6 5 tcp 1040 ------- 1 6.0 2.0 11 47
- 0.331328 6 5 tcp 1040 ------- 1 6.0 2.0 12 48
+ 0.332 1 4 cbr 1000 ------- 2 1.0 0.0 29 51
- 0.332 1 4 cbr 1000 ------- 2 1.0 0.0 29 51
- 0.33216 6 5 tcp 1040 ------- 1 6.0 2.0 13 49
- 0.332992 6 5 tcp 1040 ------- 1 6.0 2.0 14 50
r 0.333 6 5 tcp 1040 ------- 1 6.0 2.0 7 43
+ 0.333 5 4 tcp 1040 ------- 1 6.0 2.0 7 43
- 0.333 5 4 tcp 1040 ------- 1 6.0 2.0 7 43
r 0.333832 6 5 tcp 1040 ------- 1 6.0 2.0 8 44
+ 0.333832 5 4 tcp 1040 ------- 1 6.0 2.0 8 44
- 0.333832 5 4 tcp 1040 ------- 1 6.0 2.0 8 44
r 0.334664 6 5 tcp 1040 ------- 1 6.0 2.0 9 45
+ 0.334664 5 4 tcp 1040 ------- 1 6.0 2.0 9 45
- 0.334664 5 4 tcp 1040 ------- 1 6.0 2.0 9 45
r 0.335496 6 5 tcp 1040 ------- 1 6.0 2.0 10 46
+ 0.335496 5 4 tcp 1040 ------- 1 6.0 2.0 10 46
- 0.335496 5 4 tcp 1040 ------- 1 6.0 2.0 10 46
r 0.3356 4 0 cbr 1000 ------- 2 1.0 0.0 28 42
r 0.336328 6 5 tcp 1040 ------- 1 6.0 2.0 11 47
+ 0.336328 5 4 tcp 1040 ------- 1 6.0 2.0 11 47
- 0.336328 5 4 tcp 1040 ------- 1 6.0 2.0 11 47
r 0.33716 6 5 tcp 1040 ------- 1 6.0 2.0 12 48
+ 0.33716 5 4 tcp 1040 ------- 1 6.0 2.0 12 48
- 0.33716 5 4 tcp 1040 ------- 1 6.0 2.0 12 48
r 0.3378 1 4 cbr 1000 ------- 2 1.0 0.0 29 51
+ 0.3378 4 0 cbr 1000 ------- 2 1.0 0.0 29 51
- 0.3378 4 0 cbr 1000 ------- 2 1.0 0.0 29 51
r 0.337992 6 5 tcp 1040 ------- 1 6.0 2.0 13 49
+ 0.337992 5 4 tcp 1040 ------- 1 6.0 2.0 13 49
- 0.337992 5 4 tcp 1040 ------- 1 6.0 2.0 13 49
r 0.338824 6 5 tcp 1040 ------- 1 6.0 2.0 14 50
+ 0.338824 5 4 tcp 1040 ------- 1 6.0 2.0 14 50
- 0.338824 5 4 tcp 1040 ------- 1 6.0 2.0 14 50
r 0.338832 5 4 tcp 1040 ------- 1 6.0 2.0 7 43
+ 0.338832 4 3 tcp 1040 ------- 1 6.0 2.0 7 43
- 0.338832 4 3 tcp 1040 ------- 1 6.0 2.0 7 43
r 0.339664 5 4 tcp 1040 ------- 1 6.0 2.0 8 44
+ 0.339664 4 3 tcp 1040 ------- 1 6.0 2.0 8 44
- 0.339664 4 3 tcp 1040 ------- 1 6.0 2.0 8 44
+ 0.34 1 4 cbr 1000 ------- 2 1.0 0.0 30 52
- 0.34 1 4 cbr 1000 ------- 2 1.0 0.0 30 52
r 0.340496 5 4 tcp 1040 ------- 1 6.0 2.0 9 45
+ 0.340496 4 3 tcp 1040 ------- 1 6.0 2.0 9 45
- 0.340496 4 3 tcp 1040 ------- 1 6.0 2.0 9 45
r 0.341328 5 4 tcp 1040 ------- 1 6.0 2.0 10 46
+ 0.341328 4 3 tcp 1040 ------- 1 6.0 2.0 10 46
- 0.341328 4 3 tcp 1040 ------- 1 6.0 2.0 10 46
r 0.34216 5 4 tcp 1040 ------- 1 6.0 2.0 11 47
+ 0.34216 4 3 tcp 1040 ------- 1 6.0 2.0 11 47
- 0.34216 4 3 tcp 1040 ------- 1 6.0 2.0 11 47
r 0.342992 5 4 tcp 1040 ------- 1 6.0 2.0 12 48
+ 0.342992 4 3 tcp 1040 ------- 1 6.0 2.0 12 48
- 0.342992 4 3 tcp 1040 ------- 1 6.0 2.0 12 48
r 0.3436 4 0 cbr 1000 ------- 2 1.0 0.0 29 51
r 0.343824 5 4 tcp 1040 ------- 1 6.0 2.0 13 49
+ 0.343824 4 3 tcp 1040 ------- 1 6.0 2.0 13 49
- 0.343824 4 3 tcp 1040 ------- 1 6.0 2.0 13 49
r 0.344656 5 4 tcp 1040 ------- 1 6.0 2.0 14 50
+ 0.344656 4 3 tcp 1040 ------- 1 6.0 2.0 14 50
- 0.344656 4 3 tcp 1040 ------- 1 6.0 2.0 14 50
r 0.344664 4 3 tcp 1040 ------- 1 6.0 2.0 7 43
+ 0.344664 3 2 tcp 1040 ------- 1 6.0 2.0 7 43
- 0.344664 3 2 tcp 1040 ------- 1 6.0 2.0 7 43
r 0.345496 4 3 tcp 1040 ------- 1 6.0 2.0 8 44
+ 0.345496 3 2 tcp 1040 ------- 1 6.0 2.0 8 44
- 0.345496 3 2 tcp 1040 ------- 1 6.0 2.0 8 44
r 0.3458 1 4 cbr 1000 ------- 2 1.0 0.0 30 52
+ 0.3458 4 0 cbr 1000 ------- 2 1.0 0.0 30 52
- 0.3458 4 0 cbr 1000 ------- 2 1.0 0.0 30 52
r 0.346328 4 3 tcp 1040 ------- 1 6.0 2.0 9 45
+ 0.346328 3 2 tcp 1040 ------- 1 6.0 2.0 9 45
- 0.346328 3 2 tcp 1040 ------- 1 6.0 2.0 9 45
r 0.34716 4 3 tcp 1040 ------- 1 6.0 2.0 10 46
+ 0.34716 3 2 tcp 1040 ------- 1 6.0 2.0 10 46
- 0.34716 3 2 tcp 1040 ------- 1 6.0 2.0 10 46
r 0.347992 4 3 tcp 1040 ------- 1 6.0 2.0 11 47
+ 0.347992 3 2 tcp 1040 ------- 1 6.0 2.0 11 47
- 0.347992 3 2 tcp 1040 ------- 1 6.0 2.0 11 47
+ 0.348 1 4 cbr 1000 ------- 2 1.0 0.0 31 53
- 0.348 1 4 cbr 1000 ------- 2 1.0 0.0 31 53
r 0.348824 4 3 tcp 1040 ------- 1 6.0 2.0 12 48
+ 0.348824 3 2 tcp 1040 ------- 1 6.0 2.0 12 48
- 0.348824 3 2 tcp 1040 ------- 1 6.0 2.0 12 48
r 0.349656 4 3 tcp 1040 ------- 1 6.0 2.0 13 49
+ 0.349656 3 2 tcp 1040 ------- 1 6.0 2.0 13 49
- 0.349656 3 2 tcp 1040 ------- 1 6.0 2.0 13 49
r 0.350488 4 3 tcp 1040 ------- 1 6.0 2.0 14 50
+ 0.350488 3 2 tcp 1040 ------- 1 6.0 2.0 14 50
- 0.350488 3 2 tcp 1040 ------- 1 6.0 2.0 14 50
r 0.350496 3 2 tcp 1040 ------- 1 6.0 2.0 7 43
+ 0.350496 2 3 ack 40 ------- 1 2.0 6.0 7 54
- 0.350496 2 3 ack 40 ------- 1 2.0 6.0 7 54
r 0.351328 3 2 tcp 1040 ------- 1 6.0 2.0 8 44
+ 0.351328 2 3 ack 40 ------- 1 2.0 6.0 8 55
- 0.351328 2 3 ack 40 ------- 1 2.0 6.0 8 55
r 0.3516 4 0 cbr 1000 ------- 2 1.0 0.0 30 52
r 0.35216 3 2 tcp 1040 ------- 1 6.0 2.0 9 45
+ 0.35216 2 3 ack 40 ------- 1 2.0 6.0 9 56
- 0.35216 2 3 ack 40 ------- 1 2.0 6.0 9 56
r 0.352992 3 2 tcp 1040 ------- 1 6.0 2.0 10 46
+ 0.352992 2 3 ack 40 ------- 1 2.0 6.0 10 57
- 0.352992 2 3 ack 40 ------- 1 2.0 6.0 10 57
r 0.3538 1 4 cbr 1000 ------- 2 1.0 0.0 31 53
+ 0.3538 4 0 cbr 1000 ------- 2 1.0 0.0 31 53
- 0.3538 4 0 cbr 1000 ------- 2 1.0 0.0 31 53
r 0.353824 3 2 tcp 1040 ------- 1 6.0 2.0 11 47
+ 0.353824 2 3 ack 40 ------- 1 2.0 6.0 11 58
- 0.353824 2 3 ack 40 ------- 1 2.0 6.0 11 58
r 0.354656 3 2 tcp 1040 ------- 1 6.0 2.0 12 48
+ 0.354656 2 3 ack 40 ------- 1 2.0 6.0 12 59
- 0.354656 2 3 ack 40 ------- 1 2.0 6.0 12 59
r 0.355488 3 2 tcp 1040 ------- 1 6.0 2.0 13 49
+ 0.355488 2 3 ack 40 ------- 1 2.0 6.0 13 60
- 0.355488 2 3 ack 40 ------- 1 2.0 6.0 13 60
r 0.355528 2 3 ack 40 ------- 1 2.0 6.0 7 54
+ 0.355528 3 4 ack 40 ------- 1 2.0 6.0 7 54
- 0.355528 3 4 ack 40 ------- 1 2.0 6.0 7 54
+ 0.356 1 4 cbr 1000 ------- 2 1.0 0.0 32 61
- 0.356 1 4 cbr 1000 ------- 2 1.0 0.0 32 61
r 0.35632 3 2 tcp 1040 ------- 1 6.0 2.0 14 50
+ 0.35632 2 3 ack 40 ------- 1 2.0 6.0 14 62
- 0.35632 2 3 ack 40 ------- 1 2.0 6.0 14 62
r 0.35636 2 3 ack 40 ------- 1 2.0 6.0 8 55
+ 0.35636 3 4 ack 40 ------- 1 2.0 6.0 8 55
- 0.35636 3 4 ack 40 ------- 1 2.0 6.0 8 55
r 0.357192 2 3 ack 40 ------- 1 2.0 6.0 9 56
+ 0.357192 3 4 ack 40 ------- 1 2.0 6.0 9 56
- 0.357192 3 4 ack 40 ------- 1 2.0 6.0 9 56
r 0.358024 2 3 ack 40 ------- 1 2.0 6.0 10 57
+ 0.358024 3 4 ack 40 ------- 1 2.0 6.0 10 57
- 0.358024 3 4 ack 40 ------- 1 2.0 6.0 10 57
r 0.358856 2 3 ack 40 ------- 1 2.0 6.0 11 58
+ 0.358856 3 4 ack 40 ------- 1 2.0 6.0 11 58
- 0.358856 3 4 ack 40 ------- 1 2.0 6.0 11 58
r 0.3596 4 0 cbr 1000 ------- 2 1.0 0.0 31 53
r 0.359688 2 3 ack 40 ------- 1 2.0 6.0 12 59
+ 0.359688 3 4 ack 40 ------- 1 2.0 6.0 12 59
- 0.359688 3 4 ack 40 ------- 1 2.0 6.0 12 59
r 0.36052 2 3 ack 40 ------- 1 2.0 6.0 13 60
+ 0.36052 3 4 ack 40 ------- 1 2.0 6.0 13 60
- 0.36052 3 4 ack 40 ------- 1 2.0 6.0 13 60
r 0.36056 3 4 ack 40 ------- 1 2.0 6.0 7 54
+ 0.36056 4 5 ack 40 ------- 1 2.0 6.0 7 54
- 0.36056 4 5 ack 40 ------- 1 2.0 6.0 7 54
r 0.361352 2 3 ack 40 ------- 1 2.0 6.0 14 62
+ 0.361352 3 4 ack 40 ------- 1 2.0 6.0 14 62
- 0.361352 3 4 ack 40 ------- 1 2.0 6.0 14 62
r 0.361392 3 4 ack 40 ------- 1 2.0 6.0 8 55
+ 0.361392 4 5 ack 40 ------- 1 2.0 6.0 8 55
- 0.361392 4 5 ack 40 ------- 1 2.0 6.0 8 55
r 0.3618 1 4 cbr 1000 ------- 2 1.0 0.0 32 61
+ 0.3618 4 0 cbr 1000 ------- 2 1.0 0.0 32 61
- 0.3618 4 0 cbr 1000 ------- 2 1.0 0.0 32 61
r 0.362224 3 4 ack 40 ------- 1 2.0 6.0 9 56
+ 0.362224 4 5 ack 40 ------- 1 2.0 6.0 9 56
- 0.362224 4 5 ack 40 ------- 1 2.0 6.0 9 56
r 0.363056 3 4 ack 40 ------- 1 2.0 6.0 10 57
+ 0.363056 4 5 ack 40 ------- 1 2.0 6.0 10 57
- 0.363056 4 5 ack 40 ------- 1 2.0 6.0 10 57
r 0.363888 3 4 ack 40 ------- 1 2.0 6.0 11 58
+ 0.363888 4 5 ack 40 ------- 1 2.0 6.0 11 58
- 0.363888 4 5 ack 40 ------- 1 2.0 6.0 11 58
+ 0.364 1 4 cbr 1000 ------- 2 1.0 0.0 33 63
- 0.364 1 4 cbr 1000 ------- 2 1.0 0.0 33 63
r 0.36472 3 4 ack 40 ------- 1 2.0 6.0 12 59
+ 0.36472 4 5 ack 40 ------- 1 2.0 6.0 12 59
- 0.36472 4 5 ack 40 ------- 1 2.0 6.0 12 59
r 0.365552 3 4 ack 40 ------- 1 2.0 6.0 13 60
+ 0.365552 4 5 ack 40 ------- 1 2.0 6.0 13 60
- 0.365552 4 5 ack 40 ------- 1 2.0 6.0 13 60
r 0.365592 4 5 ack 40 ------- 1 2.0 6.0 7 54
+ 0.365592 5 6 ack 40 ------- 1 2.0 6.0 7 54
- 0.365592 5 6 ack 40 ------- 1 2.0 6.0 7 54
r 0.366384 3 4 ack 40 ------- 1 2.0 6.0 14 62
+ 0.366384 4 5 ack 40 ------- 1 2.0 6.0 14 62
- 0.366384 4 5 ack 40 ------- 1 2.0 6.0 14 62
r 0.366424 4 5 ack 40 ------- 1 2.0 6.0 8 55
+ 0.366424 5 6 ack 40 ------- 1 2.0 6.0 8 55
- 0.366424 5 6 ack 40 ------- 1 2.0 6.0 8 55
r 0.367256 4 5 ack 40 ------- 1 2.0 6.0 9 56
+ 0.367256 5 6 ack 40 ------- 1 2.0 6.0 9 56
- 0.367256 5 6 ack 40 ------- 1 2.0 6.0 9 56
r 0.3676 4 0 cbr 1000 ------- 2 1.0 0.0 32 61
r 0.368088 4 5 ack 40 ------- 1 2.0 6.0 10 57
+ 0.368088 5 6 ack 40 ------- 1 2.0 6.0 10 57
- 0.368088 5 6 ack 40 ------- 1 2.0 6.0 10 57
r 0.36892 4 5 ack 40 ------- 1 2.0 6.0 11 58
+ 0.36892 5 6 ack 40 ------- 1 2.0 6.0 11 58
- 0.36892 5 6 ack 40 ------- 1 2.0 6.0 11 58
r 0.369752 4 5 ack 40 ------- 1 2.0 6.0 12 59
+ 0.369752 5 6 ack 40 ------- 1 2.0 6.0 12 59
- 0.369752 5 6 ack 40 ------- 1 2.0 6.0 12 59
r 0.3698 1 4 cbr 1000 ------- 2 1.0 0.0 33 63
+ 0.3698 4 0 cbr 1000 ------- 2 1.0 0.0 33 63
- 0.3698 4 0 cbr 1000 ------- 2 1.0 0.0 33 63
r 0.370584 4 5 ack 40 ------- 1 2.0 6.0 13 60
+ 0.370584 5 6 ack 40 ------- 1 2.0 6.0 13 60
- 0.370584 5 6 ack 40 ------- 1 2.0 6.0 13 60
r 0.370624 5 6 ack 40 ------- 1 2.0 6.0 7 54
+ 0.370624 6 5 tcp 1040 ------- 1 6.0 2.0 15 64
- 0.370624 6 5 tcp 1040 ------- 1 6.0 2.0 15 64
+ 0.370624 6 5 tcp 1040 ------- 1 6.0 2.0 16 65
r 0.371416 4 5 ack 40 ------- 1 2.0 6.0 14 62
+ 0.371416 5 6 ack 40 ------- 1 2.0 6.0 14 62
- 0.371416 5 6 ack 40 ------- 1 2.0 6.0 14 62
r 0.371456 5 6 ack 40 ------- 1 2.0 6.0 8 55
+ 0.371456 6 5 tcp 1040 ------- 1 6.0 2.0 17 66
+ 0.371456 6 5 tcp 1040 ------- 1 6.0 2.0 18 67
- 0.371456 6 5 tcp 1040 ------- 1 6.0 2.0 16 65
+ 0.372 1 4 cbr 1000 ------- 2 1.0 0.0 34 68
- 0.372 1 4 cbr 1000 ------- 2 1.0 0.0 34 68
r 0.372288 5 6 ack 40 ------- 1 2.0 6.0 9 56
+ 0.372288 6 5 tcp 1040 ------- 1 6.0 2.0 19 69
+ 0.372288 6 5 tcp 1040 ------- 1 6.0 2.0 20 70
- 0.372288 6 5 tcp 1040 ------- 1 6.0 2.0 17 66
r 0.37312 5 6 ack 40 ------- 1 2.0 6.0 10 57
+ 0.37312 6 5 tcp 1040 ------- 1 6.0 2.0 21 71
+ 0.37312 6 5 tcp 1040 ------- 1 6.0 2.0 22 72
- 0.37312 6 5 tcp 1040 ------- 1 6.0 2.0 18 67
r 0.373952 5 6 ack 40 ------- 1 2.0 6.0 11 58
+ 0.373952 6 5 tcp 1040 ------- 1 6.0 2.0 23 73
+ 0.373952 6 5 tcp 1040 ------- 1 6.0 2.0 24 74
- 0.373952 6 5 tcp 1040 ------- 1 6.0 2.0 19 69
r 0.374784 5 6 ack 40 ------- 1 2.0 6.0 12 59
+ 0.374784 6 5 tcp 1040 ------- 1 6.0 2.0 25 75
+ 0.374784 6 5 tcp 1040 ------- 1 6.0 2.0 26 76
- 0.374784 6 5 tcp 1040 ------- 1 6.0 2.0 20 70
r 0.3756 4 0 cbr 1000 ------- 2 1.0 0.0 33 63
r 0.375616 5 6 ack 40 ------- 1 2.0 6.0 13 60
+ 0.375616 6 5 tcp 1040 ------- 1 6.0 2.0 27 77
+ 0.375616 6 5 tcp 1040 ------- 1 6.0 2.0 28 78
- 0.375616 6 5 tcp 1040 ------- 1 6.0 2.0 21 71
r 0.376448 5 6 ack 40 ------- 1 2.0 6.0 14 62
+ 0.376448 6 5 tcp 1040 ------- 1 6.0 2.0 29 79
+ 0.376448 6 5 tcp 1040 ------- 1 6.0 2.0 30 80
- 0.376448 6 5 tcp 1040 ------- 1 6.0 2.0 22 72
r 0.376456 6 5 tcp 1040 ------- 1 6.0 2.0 15 64
+ 0.376456 5 4 tcp 1040 ------- 1 6.0 2.0 15 64
- 0.376456 5 4 tcp 1040 ------- 1 6.0 2.0 15 64
- 0.37728 6 5 tcp 1040 ------- 1 6.0 2.0 23 73
r 0.377288 6 5 tcp 1040 ------- 1 6.0 2.0 16 65
+ 0.377288 5 4 tcp 1040 ------- 1 6.0 2.0 16 65
- 0.377288 5 4 tcp 1040 ------- 1 6.0 2.0 16 65
r 0.3778 1 4 cbr 1000 ------- 2 1.0 0.0 34 68
+ 0.3778 4 0 cbr 1000 ------- 2 1.0 0.0 34 68
- 0.3778 4 0 cbr 1000 ------- 2 1.0 0.0 34 68
- 0.378112 6 5 tcp 1040 ------- 1 6.0 2.0 24 74
r 0.37812 6 5 tcp 1040 ------- 1 6.0 2.0 17 66
+ 0.37812 5 4 tcp 1040 ------- 1 6.0 2.0 17 66
- 0.37812 5 4 tcp 1040 ------- 1 6.0 2.0 17 66
- 0.378944 6 5 tcp 1040 ------- 1 6.0 2.0 25 75
r 0.378952 6 5 tcp 1040 ------- 1 6.0 2.0 18 67
+ 0.378952 5 4 tcp 1040 ------- 1 6.0 2.0 18 67
- 0.378952 5 4 tcp 1040 ------- 1 6.0 2.0 18 67
- 0.379776 6 5 tcp 1040 ------- 1 6.0 2.0 26 76
r 0.379784 6 5 tcp 1040 ------- 1 6.0 2.0 19 69
+ 0.379784 5 4 tcp 1040 ------- 1 6.0 2.0 19 69
- 0.379784 5 4 tcp 1040 ------- 1 6.0 2.0 19 69
+ 0.38 1 4 cbr 1000 ------- 2 1.0 0.0 35 81
- 0.38 1 4 cbr 1000 ------- 2 1.0 0.0 35 81
- 0.380608 6 5 tcp 1040 ------- 1 6.0 2.0 27 77
r 0.380616 6 5 tcp 1040 ------- 1 6.0 2.0 20 70
+ 0.380616 5 4 tcp 1040 ------- 1 6.0 2.0 20 70
- 0.380616 5 4 tcp 1040 ------- 1 6.0 2.0 20 70
- 0.38144 6 5 tcp 1040 ------- 1 6.0 2.0 28 78
r 0.381448 6 5 tcp 1040 ------- 1 6.0 2.0 21 71
+ 0.381448 5 4 tcp 1040 ------- 1 6.0 2.0 21 71
- 0.381448 5 4 tcp 1040 ------- 1 6.0 2.0 21 71
- 0.382272 6 5 tcp 1040 ------- 1 6.0 2.0 29 79
r 0.38228 6 5 tcp 1040 ------- 1 6.0 2.0 22 72
+ 0.38228 5 4 tcp 1040 ------- 1 6.0 2.0 22 72
- 0.38228 5 4 tcp 1040 ------- 1 6.0 2.0 22 72
r 0.382288 5 4 tcp 1040 ------- 1 6.0 2.0 15 64
+ 0.382288 4 3 tcp 1040 ------- 1 6.0 2.0 15 64
- 0.382288 4 3 tcp 1040 ------- 1 6.0 2.0 15 64
- 0.383104 6 5 tcp 1040 ------- 1 6.0 2.0 30 80
r 0.383112 6 5 tcp 1040 ------- 1 6.0 2.0 23 73
+ 0.383112 5 4 tcp 1040 ------- 1 6.0 2.0 23 73
- 0.383112 5 4 tcp 1040 ------- 1 6.0 2.0 23 73
r 0.38312 5 4 tcp 1040 ------- 1 6.0 2.0 16 65
+ 0.38312 4 3 tcp 1040 ------- 1 6.0 2.0 16 65
- 0.38312 4 3 tcp 1040 ------- 1 6.0 2.0 16 65
r 0.3836 4 0 cbr 1000 ------- 2 1.0 0.0 34 68
r 0.383944 6 5 tcp 1040 ------- 1 6.0 2.0 24 74
+ 0.383944 5 4 tcp 1040 ------- 1 6.0 2.0 24 74
- 0.383944 5 4 tcp 1040 ------- 1 6.0 2.0 24 74
r 0.383952 5 4 tcp 1040 ------- 1 6.0 2.0 17 66
+ 0.383952 4 3 tcp 1040 ------- 1 6.0 2.0 17 66
- 0.383952 4 3 tcp 1040 ------- 1 6.0 2.0 17 66
r 0.384776 6 5 tcp 1040 ------- 1 6.0 2.0 25 75
+ 0.384776 5 4 tcp 1040 ------- 1 6.0 2.0 25 75
- 0.384776 5 4 tcp 1040 ------- 1 6.0 2.0 25 75
r 0.384784 5 4 tcp 1040 ------- 1 6.0 2.0 18 67
+ 0.384784 4 3 tcp 1040 ------- 1 6.0 2.0 18 67
- 0.384784 4 3 tcp 1040 ------- 1 6.0 2.0 18 67
r 0.385608 6 5 tcp 1040 ------- 1 6.0 2.0 26 76
+ 0.385608 5 4 tcp 1040 ------- 1 6.0 2.0 26 76
- 0.385608 5 4 tcp 1040 ------- 1 6.0 2.0 26 76
r 0.385616 5 4 tcp 1040 ------- 1 6.0 2.0 19 69